# vtk DataFile Version 3.0
#This file was generated by the deal.II library on 2015/11/9 at 12:22:47
ASCII
DATASET UNSTRUCTURED_GRID

POINTS 4096 double
0 0 0
0.03125 0 0
0 0.03125 0
0.03125 0.03125 0
0.03125 0 0
0.0625 0 0
0.03125 0.03125 0
0.0625 0.03125 0
0 0.03125 0
0.03125 0.03125 0
0 0.0625 0
0.03125 0.0625 0
0.03125 0.03125 0
0.0625 0.03125 0
0.03125 0.0625 0
0.0625 0.0625 0
0.0625 0 0
0.09375 0 0
0.0625 0.03125 0
0.09375 0.03125 0
0.09375 0 0
0.125 0 0
0.09375 0.03125 0
0.125 0.03125 0
0.0625 0.03125 0
0.09375 0.03125 0
0.0625 0.0625 0
0.09375 0.0625 0
0.09375 0.03125 0
0.125 0.03125 0
0.09375 0.0625 0
0.125 0.0625 0
0 0.0625 0
0.03125 0.0625 0
0 0.09375 0
0.03125 0.09375 0
0.03125 0.0625 0
0.0625 0.0625 0
0.03125 0.09375 0
0.0625 0.09375 0
0 0.09375 0
0.03125 0.09375 0
0 0.125 0
0.03125 0.125 0
0.03125 0.09375 0
0.0625 0.09375 0
0.03125 0.125 0
0.0625 0.125 0
0.0625 0.0625 0
0.09375 0.0625 0
0.0625 0.09375 0
0.09375 0.09375 0
0.09375 0.0625 0
0.125 0.0625 0
0.09375 0.09375 0
0.125 0.09375 0
0.0625 0.09375 0
0.09375 0.09375 0
0.0625 0.125 0
0.09375 0.125 0
0.09375 0.09375 0
0.125 0.09375 0
0.09375 0.125 0
0.125 0.125 0
0.125 0 0
0.15625 0 0
0.125 0.03125 0
0.15625 0.03125 0
0.15625 0 0
0.1875 0 0
0.15625 0.03125 0
0.1875 0.03125 0
0.125 0.03125 0
0.15625 0.03125 0
0.125 0.0625 0
0.15625 0.0625 0
0.15625 0.03125 0
0.1875 0.03125 0
0.15625 0.0625 0
0.1875 0.0625 0
0.1875 0 0
0.21875 0 0
0.1875 0.03125 0
0.21875 0.03125 0
0.21875 0 0
0.25 0 0
0.21875 0.03125 0
0.25 0.03125 0
0.1875 0.03125 0
0.21875 0.03125 0
0.1875 0.0625 0
0.21875 0.0625 0
0.21875 0.03125 0
0.25 0.03125 0
0.21875 0.0625 0
0.25 0.0625 0
0.125 0.0625 0
0.15625 0.0625 0
0.125 0.09375 0
0.15625 0.09375 0
0.15625 0.0625 0
0.1875 0.0625 0
0.15625 0.09375 0
0.1875 0.09375 0
0.125 0.09375 0
0.15625 0.09375 0
0.125 0.125 0
0.15625 0.125 0
0.15625 0.09375 0
0.1875 0.09375 0
0.15625 0.125 0
0.1875 0.125 0
0.1875 0.0625 0
0.21875 0.0625 0
0.1875 0.09375 0
0.21875 0.09375 0
0.21875 0.0625 0
0.25 0.0625 0
0.21875 0.09375 0
0.25 0.09375 0
0.1875 0.09375 0
0.21875 0.09375 0
0.1875 0.125 0
0.21875 0.125 0
0.21875 0.09375 0
0.25 0.09375 0
0.21875 0.125 0
0.25 0.125 0
0 0.125 0
0.03125 0.125 0
0 0.15625 0
0.03125 0.15625 0
0.03125 0.125 0
0.0625 0.125 0
0.03125 0.15625 0
0.0625 0.15625 0
0 0.15625 0
0.03125 0.15625 0
0 0.1875 0
0.03125 0.1875 0
0.03125 0.15625 0
0.0625 0.15625 0
0.03125 0.1875 0
0.0625 0.1875 0
0.0625 0.125 0
0.09375 0.125 0
0.0625 0.15625 0
0.09375 0.15625 0
0.09375 0.125 0
0.125 0.125 0
0.09375 0.15625 0
0.125 0.15625 0
0.0625 0.15625 0
0.09375 0.15625 0
0.0625 0.1875 0
0.09375 0.1875 0
0.09375 0.15625 0
0.125 0.15625 0
0.09375 0.1875 0
0.125 0.1875 0
0 0.1875 0
0.03125 0.1875 0
0 0.21875 0
0.03125 0.21875 0
0.03125 0.1875 0
0.0625 0.1875 0
0.03125 0.21875 0
0.0625 0.21875 0
0 0.21875 0
0.03125 0.21875 0
0 0.25 0
0.03125 0.25 0
0.03125 0.21875 0
0.0625 0.21875 0
0.03125 0.25 0
0.0625 0.25 0
0.0625 0.1875 0
0.09375 0.1875 0
0.0625 0.21875 0
0.09375 0.21875 0
0.09375 0.1875 0
0.125 0.1875 0
0.09375 0.21875 0
0.125 0.21875 0
0.0625 0.21875 0
0.09375 0.21875 0
0.0625 0.25 0
0.09375 0.25 0
0.09375 0.21875 0
0.125 0.21875 0
0.09375 0.25 0
0.125 0.25 0
0.125 0.125 0
0.15625 0.125 0
0.125 0.15625 0
0.15625 0.15625 0
0.15625 0.125 0
0.1875 0.125 0
0.15625 0.15625 0
0.1875 0.15625 0
0.125 0.15625 0
0.15625 0.15625 0
0.125 0.1875 0
0.15625 0.1875 0
0.15625 0.15625 0
0.1875 0.15625 0
0.15625 0.1875 0
0.1875 0.1875 0
0.1875 0.125 0
0.21875 0.125 0
0.1875 0.15625 0
0.21875 0.15625 0
0.21875 0.125 0
0.25 0.125 0
0.21875 0.15625 0
0.25 0.15625 0
0.1875 0.15625 0
0.21875 0.15625 0
0.1875 0.1875 0
0.21875 0.1875 0
0.21875 0.15625 0
0.25 0.15625 0
0.21875 0.1875 0
0.25 0.1875 0
0.125 0.1875 0
0.15625 0.1875 0
0.125 0.21875 0
0.15625 0.21875 0
0.15625 0.1875 0
0.1875 0.1875 0
0.15625 0.21875 0
0.1875 0.21875 0
0.125 0.21875 0
0.15625 0.21875 0
0.125 0.25 0
0.15625 0.25 0
0.15625 0.21875 0
0.1875 0.21875 0
0.15625 0.25 0
0.1875 0.25 0
0.1875 0.1875 0
0.21875 0.1875 0
0.1875 0.21875 0
0.21875 0.21875 0
0.21875 0.1875 0
0.25 0.1875 0
0.21875 0.21875 0
0.25 0.21875 0
0.1875 0.21875 0
0.21875 0.21875 0
0.1875 0.25 0
0.21875 0.25 0
0.21875 0.21875 0
0.25 0.21875 0
0.21875 0.25 0
0.25 0.25 0
0.25 0 0
0.28125 0 0
0.25 0.03125 0
0.28125 0.03125 0
0.28125 0 0
0.3125 0 0
0.28125 0.03125 0
0.3125 0.03125 0
0.25 0.03125 0
0.28125 0.03125 0
0.25 0.0625 0
0.28125 0.0625 0
0.28125 0.03125 0
0.3125 0.03125 0
0.28125 0.0625 0
0.3125 0.0625 0
0.3125 0 0
0.34375 0 0
0.3125 0.03125 0
0.34375 0.03125 0
0.34375 0 0
0.375 0 0
0.34375 0.03125 0
0.375 0.03125 0
0.3125 0.03125 0
0.34375 0.03125 0
0.3125 0.0625 0
0.34375 0.0625 0
0.34375 0.03125 0
0.375 0.03125 0
0.34375 0.0625 0
0.375 0.0625 0
0.25 0.0625 0
0.28125 0.0625 0
0.25 0.09375 0
0.28125 0.09375 0
0.28125 0.0625 0
0.3125 0.0625 0
0.28125 0.09375 0
0.3125 0.09375 0
0.25 0.09375 0
0.28125 0.09375 0
0.25 0.125 0
0.28125 0.125 0
0.28125 0.09375 0
0.3125 0.09375 0
0.28125 0.125 0
0.3125 0.125 0
0.3125 0.0625 0
0.34375 0.0625 0
0.3125 0.09375 0
0.34375 0.09375 0
0.34375 0.0625 0
0.375 0.0625 0
0.34375 0.09375 0
0.375 0.09375 0
0.3125 0.09375 0
0.34375 0.09375 0
0.3125 0.125 0
0.34375 0.125 0
0.34375 0.09375 0
0.375 0.09375 0
0.34375 0.125 0
0.375 0.125 0
0.375 0 0
0.40625 0 0
0.375 0.03125 0
0.40625 0.03125 0
0.40625 0 0
0.4375 0 0
0.40625 0.03125 0
0.4375 0.03125 0
0.375 0.03125 0
0.40625 0.03125 0
0.375 0.0625 0
0.40625 0.0625 0
0.40625 0.03125 0
0.4375 0.03125 0
0.40625 0.0625 0
0.4375 0.0625 0
0.4375 0 0
0.46875 0 0
0.4375 0.03125 0
0.46875 0.03125 0
0.46875 0 0
0.5 0 0
0.46875 0.03125 0
0.5 0.03125 0
0.4375 0.03125 0
0.46875 0.03125 0
0.4375 0.0625 0
0.46875 0.0625 0
0.46875 0.03125 0
0.5 0.03125 0
0.46875 0.0625 0
0.5 0.0625 0
0.375 0.0625 0
0.40625 0.0625 0
0.375 0.09375 0
0.40625 0.09375 0
0.40625 0.0625 0
0.4375 0.0625 0
0.40625 0.09375 0
0.4375 0.09375 0
0.375 0.09375 0
0.40625 0.09375 0
0.375 0.125 0
0.40625 0.125 0
0.40625 0.09375 0
0.4375 0.09375 0
0.40625 0.125 0
0.4375 0.125 0
0.4375 0.0625 0
0.46875 0.0625 0
0.4375 0.09375 0
0.46875 0.09375 0
0.46875 0.0625 0
0.5 0.0625 0
0.46875 0.09375 0
0.5 0.09375 0
0.4375 0.09375 0
0.46875 0.09375 0
0.4375 0.125 0
0.46875 0.125 0
0.46875 0.09375 0
0.5 0.09375 0
0.46875 0.125 0
0.5 0.125 0
0.25 0.125 0
0.28125 0.125 0
0.25 0.15625 0
0.28125 0.15625 0
0.28125 0.125 0
0.3125 0.125 0
0.28125 0.15625 0
0.3125 0.15625 0
0.25 0.15625 0
0.28125 0.15625 0
0.25 0.1875 0
0.28125 0.1875 0
0.28125 0.15625 0
0.3125 0.15625 0
0.28125 0.1875 0
0.3125 0.1875 0
0.3125 0.125 0
0.34375 0.125 0
0.3125 0.15625 0
0.34375 0.15625 0
0.34375 0.125 0
0.375 0.125 0
0.34375 0.15625 0
0.375 0.15625 0
0.3125 0.15625 0
0.34375 0.15625 0
0.3125 0.1875 0
0.34375 0.1875 0
0.34375 0.15625 0
0.375 0.15625 0
0.34375 0.1875 0
0.375 0.1875 0
0.25 0.1875 0
0.28125 0.1875 0
0.25 0.21875 0
0.28125 0.21875 0
0.28125 0.1875 0
0.3125 0.1875 0
0.28125 0.21875 0
0.3125 0.21875 0
0.25 0.21875 0
0.28125 0.21875 0
0.25 0.25 0
0.28125 0.25 0
0.28125 0.21875 0
0.3125 0.21875 0
0.28125 0.25 0
0.3125 0.25 0
0.3125 0.1875 0
0.34375 0.1875 0
0.3125 0.21875 0
0.34375 0.21875 0
0.34375 0.1875 0
0.375 0.1875 0
0.34375 0.21875 0
0.375 0.21875 0
0.3125 0.21875 0
0.34375 0.21875 0
0.3125 0.25 0
0.34375 0.25 0
0.34375 0.21875 0
0.375 0.21875 0
0.34375 0.25 0
0.375 0.25 0
0.375 0.125 0
0.40625 0.125 0
0.375 0.15625 0
0.40625 0.15625 0
0.40625 0.125 0
0.4375 0.125 0
0.40625 0.15625 0
0.4375 0.15625 0
0.375 0.15625 0
0.40625 0.15625 0
0.375 0.1875 0
0.40625 0.1875 0
0.40625 0.15625 0
0.4375 0.15625 0
0.40625 0.1875 0
0.4375 0.1875 0
0.4375 0.125 0
0.46875 0.125 0
0.4375 0.15625 0
0.46875 0.15625 0
0.46875 0.125 0
0.5 0.125 0
0.46875 0.15625 0
0.5 0.15625 0
0.4375 0.15625 0
0.46875 0.15625 0
0.4375 0.1875 0
0.46875 0.1875 0
0.46875 0.15625 0
0.5 0.15625 0
0.46875 0.1875 0
0.5 0.1875 0
0.375 0.1875 0
0.40625 0.1875 0
0.375 0.21875 0
0.40625 0.21875 0
0.40625 0.1875 0
0.4375 0.1875 0
0.40625 0.21875 0
0.4375 0.21875 0
0.375 0.21875 0
0.40625 0.21875 0
0.375 0.25 0
0.40625 0.25 0
0.40625 0.21875 0
0.4375 0.21875 0
0.40625 0.25 0
0.4375 0.25 0
0.4375 0.1875 0
0.46875 0.1875 0
0.4375 0.21875 0
0.46875 0.21875 0
0.46875 0.1875 0
0.5 0.1875 0
0.46875 0.21875 0
0.5 0.21875 0
0.4375 0.21875 0
0.46875 0.21875 0
0.4375 0.25 0
0.46875 0.25 0
0.46875 0.21875 0
0.5 0.21875 0
0.46875 0.25 0
0.5 0.25 0
0 0.25 0
0.03125 0.25 0
0 0.28125 0
0.03125 0.28125 0
0.03125 0.25 0
0.0625 0.25 0
0.03125 0.28125 0
0.0625 0.28125 0
0 0.28125 0
0.03125 0.28125 0
0 0.3125 0
0.03125 0.3125 0
0.03125 0.28125 0
0.0625 0.28125 0
0.03125 0.3125 0
0.0625 0.3125 0
0.0625 0.25 0
0.09375 0.25 0
0.0625 0.28125 0
0.09375 0.28125 0
0.09375 0.25 0
0.125 0.25 0
0.09375 0.28125 0
0.125 0.28125 0
0.0625 0.28125 0
0.09375 0.28125 0
0.0625 0.3125 0
0.09375 0.3125 0
0.09375 0.28125 0
0.125 0.28125 0
0.09375 0.3125 0
0.125 0.3125 0
0 0.3125 0
0.03125 0.3125 0
0 0.34375 0
0.03125 0.34375 0
0.03125 0.3125 0
0.0625 0.3125 0
0.03125 0.34375 0
0.0625 0.34375 0
0 0.34375 0
0.03125 0.34375 0
0 0.375 0
0.03125 0.375 0
0.03125 0.34375 0
0.0625 0.34375 0
0.03125 0.375 0
0.0625 0.375 0
0.0625 0.3125 0
0.09375 0.3125 0
0.0625 0.34375 0
0.09375 0.34375 0
0.09375 0.3125 0
0.125 0.3125 0
0.09375 0.34375 0
0.125 0.34375 0
0.0625 0.34375 0
0.09375 0.34375 0
0.0625 0.375 0
0.09375 0.375 0
0.09375 0.34375 0
0.125 0.34375 0
0.09375 0.375 0
0.125 0.375 0
0.125 0.25 0
0.15625 0.25 0
0.125 0.28125 0
0.15625 0.28125 0
0.15625 0.25 0
0.1875 0.25 0
0.15625 0.28125 0
0.1875 0.28125 0
0.125 0.28125 0
0.15625 0.28125 0
0.125 0.3125 0
0.15625 0.3125 0
0.15625 0.28125 0
0.1875 0.28125 0
0.15625 0.3125 0
0.1875 0.3125 0
0.1875 0.25 0
0.21875 0.25 0
0.1875 0.28125 0
0.21875 0.28125 0
0.21875 0.25 0
0.25 0.25 0
0.21875 0.28125 0
0.25 0.28125 0
0.1875 0.28125 0
0.21875 0.28125 0
0.1875 0.3125 0
0.21875 0.3125 0
0.21875 0.28125 0
0.25 0.28125 0
0.21875 0.3125 0
0.25 0.3125 0
0.125 0.3125 0
0.15625 0.3125 0
0.125 0.34375 0
0.15625 0.34375 0
0.15625 0.3125 0
0.1875 0.3125 0
0.15625 0.34375 0
0.1875 0.34375 0
0.125 0.34375 0
[...]
POINT_DATA 4096
VECTORS U double
0.0 0.0 0.0
0.0 0.0 0.0
0.0 0.0 0.0
0.00162496583358 0.00156738416642 0.0
0.0 0.0 0.0
0.0 0.0 0.0
0.00162496583358 0.00156738416642 0.0
0.00327796651439 0.00317854515278 0.0
0.0 0.0 0.0
0.00162496583358 0.00156738416642 0.0
0.0 0.0 0.0
0.00318601484722 0.00308383348561 0.0
0.00162496583358 0.00156738416642 0.0
0.00327796651439 0.00317854515278 0.0
0.00318601484722 0.00308383348561 0.0
0.00641494177182 0.00625765822818 0.0
0.0 0.0 0.0
0.0 0.0 0.0
0.00327796651439 0.00317854515278 0.0
0.0049087476054 0.00477727375622 0.0
0.0 0.0 0.0
0.0 0.0 0.0
0.0049087476054 0.00477727375622 0.0
0.00649353237466 0.00633394147453 0.0
0.00327796651439 0.00317854515278 0.0
0.0049087476054 0.00477727375622 0.0
0.00641494177182 0.00625765822818 0.0
0.00962448722188 0.00941663413973 0.0
0.0049087476054 0.00477727375622 0.0
0.00649353237466 0.00633394147453 0.0
0.00962448722188 0.00941663413973 0.0
0.012768482292 0.0124970012516 0.0
0.0 0.0 0.0
0.00318601484722 0.00308383348561 0.0
0.0 0.0 0.0
0.00469956624378 0.0045640523946 0.0
0.00318601484722 0.00308383348561 0.0
0.00641494177182 0.00625765822818 0.0
0.00469956624378 0.0045640523946 0.0
0.00944906586027 0.00923841277812 0.0
0.0 0.0 0.0
0.00469956624378 0.0045640523946 0.0
0.0 0.0 0.0
0.00616446852547 0.00600026762534 0.0
0.00469956624378 0.0045640523946 0.0
0.00944906586027 0.00923841277812 0.0
0.00616446852547 0.00600026762534 0.0
0.0123817987484 0.012105617708 0.0
0.00641494177182 0.00625765822818 0.0
0.00962448722188 0.00941663413973 0.0
0.00944906586027 0.00923841277812 0.0
0.014184166764 0.013892533236 0.0
0.00962448722188 0.00941663413973 0.0
0.012768482292 0.0124970012516 0.0
0.014184166764 0.013892533236 0.0
0.0188437538261 0.0184360200231 0.0
0.00944906586027 0.00923841277812 0.0
0.014184166764 0.013892533236 0.0
0.0123817987484 0.012105617708 0.0
0.0185869799769 0.0181762461739 0.0
0.014184166764 0.013892533236 0.0
0.0188437538261 0.0184360200231 0.0
0.0185869799769 0.0181762461739 0.0
0.0247077811865 0.0241052188135 0.0
0.0 0.0 0.0
0.0 0.0 0.0
0.00649353237466 0.00633394147453 0.0
0.00801664635376 0.00782684454637 0.0
0.0 0.0 0.0
0.0 0.0 0.0
0.00801664635376 0.00782684454637 0.0
0.00946448796579 0.0092380138416 0.0
0.00649353237466 0.00633394147453 0.0
0.00801664635376 0.00782684454637 0.0
0.012768482292 0.0124970012516 0.0
0.0158109086733 0.0154538444089 0.0
0.00801664635376 0.00782684454637 0.0
0.00946448796579 0.0092380138416 0.0
0.0158109086733 0.0154538444089 0.0
0.0187188229584 0.018251558082 0.0
0.0 0.0 0.0
0.0 0.0 0.0
0.00946448796579 0.0092380138416 0.0
0.0108250882718 0.0105521858524 0.0
0.0 0.0 0.0
0.0 0.0 0.0
0.0108250882718 0.0105521858524 0.0
0.0120863220161 0.0117560804032 0.0
0.00946448796579 0.0092380138416 0.0
0.0108250882718 0.0105521858524 0.0
0.0187188229584 0.018251558082 0.0
0.0214625983147 0.0208603659497 0.0
0.0108250882718 0.0105521858524 0.0
0.0120863220161 0.0117560804032 0.0
0.0214625983147 0.0208603659497 0.0
0.0240134323651 0.0232540325113 0.0
0.012768482292 0.0124970012516 0.0
0.0158109086733 0.0154538444089 0.0
0.0188437538261 0.0184360200231 0.0
0.0233739492021 0.02280310388 0.0
0.0158109086733 0.0154538444089 0.0
0.0187188229584 0.018251558082 0.0
0.0233739492021 0.02280310388 0.0
0.0277207093278 0.0269412242001 0.0
0.0188437538261 0.0184360200231 0.0
0.0233739492021 0.02280310388 0.0
0.0247077811865 0.0241052188135 0.0
0.030673301993 0.0298101889071 0.0
0.0233739492021 0.02280310388 0.0
0.0277207093278 0.0269412242001 0.0
0.030673301993 0.0298101889071 0.0
0.0364137311134 0.0352269499269 0.0
0.0187188229584 0.018251558082 0.0
0.0214625983147 0.0208603659497 0.0
0.0277207093278 0.0269412242001 0.0
0.0318358573572 0.0308068764457 0.0
0.0214625983147 0.0208603659497 0.0
0.0240134323651 0.0232540325113 0.0
0.0318358573572 0.0308068764457 0.0
0.0356712330196 0.0343616123025 0.0
0.0277207093278 0.0269412242001 0.0
0.0318358573572 0.0308068764457 0.0
0.0364137311134 0.0352269499269 0.0
0.0418590915451 0.0402966422578 0.0
0.0318358573572 0.0308068764457 0.0
0.0356712330196 0.0343616123025 0.0
0.0418590915451 0.0402966422578 0.0
0.0469427811865 0.0449707811865 0.0
0.0 0.0 0.0
0.00616446852547 0.00600026762534 0.0
0.0 0.0 0.0
0.00757311545363 0.00737855364624 0.0
0.00616446852547 0.00600026762534 0.0
0.0123817987484 0.012105617708 0.0
0.00757311545363 0.00737855364624 0.0
0.0151992555911 0.0148370913267 0.0
0.0 0.0 0.0
0.00757311545363 0.00737855364624 0.0
0.0 0.0 0.0
0.0089152261584 0.00868451203421 0.0
0.00757311545363 0.00737855364624 0.0
0.0151992555911 0.0148370913267 0.0
0.0089152261584 0.00868451203421 0.0
0.017880841918 0.0174081770416 0.0
0.0123817987484 0.012105617708 0.0
0.0185869799769 0.0181762461739 0.0
0.0151992555911 0.0148370913267 0.0
0.02280989612 0.0222360507979 0.0
0.0185869799769 0.0181762461739 0.0
0.0247077811865 0.0241052188135 0.0
0.02280989612 0.0222360507979 0.0
0.0303258110929 0.029460698007 0.0
0.0151992555911 0.0148370913267 0.0
0.02280989612 0.0222360507979 0.0
0.017880841918 0.0174081770416 0.0
0.0268237757999 0.0260402906722 0.0
0.02280989612 0.0222360507979 0.0
0.0303258110929 0.029460698007 0.0
0.0268237757999 0.0260402906722 0.0
0.0356550500731 0.0344662688866 0.0
0.0 0.0 0.0
0.0089152261584 0.00868451203421 0.0
0.0 0.0 0.0
0.0101795041476 0.00990291172823 0.0
0.0089152261584 0.00868451203421 0.0
0.017880841918 0.0174081770416 0.0
0.0101795041476 0.00990291172823 0.0
0.0204037340503 0.0197964016853 0.0
0.0 0.0 0.0
0.0101795041476 0.00990291172823 0.0
0.0 0.0 0.0
0.0113544695968 0.0110216779839 0.0
0.0101795041476 0.00990291172823 0.0
0.0204037340503 0.0197964016853 0.0
0.0113544695968 0.0110216779839 0.0
0.0227442674887 0.0219815676349 0.0
0.017880841918 0.0174081770416 0.0
0.0268237757999 0.0260402906722 0.0
0.0204037340503 0.0197964016853 0.0
0.0305931235543 0.0295611426428 0.0
0.0268237757999 0.0260402906722 0.0
0.0356550500731 0.0344662688866 0.0
0.0305931235543 0.0295611426428 0.0
0.0406493577422 0.0390849084549 0.0
0.0204037340503 0.0197964016853 0.0
0.0305931235543 0.0295611426428 0.0
0.0227442674887 0.0219815676349 0.0
0.0340813876975 0.0327707669804 0.0
0.0305931235543 0.0295611426428 0.0
0.0406493577422 0.0390849084549 0.0
0.0340813876975 0.0327707669804 0.0
0.0452602188135 0.0432872188135 0.0
0.0247077811865 0.0241052188135 0.0
0.030673301993 0.0298101889071 0.0
0.0303258110929 0.029460698007 0.0
0.0376608460469 0.0364221539531 0.0
0.030673301993 0.0298101889071 0.0
0.0364137311134 0.0352269499269 0.0
0.0376608460469 0.0364221539531 0.0
0.0447279671593 0.0430404346481 0.0
0.0303258110929 0.029460698007 0.0
0.0376608460469 0.0364221539531 0.0
0.0356550500731 0.0344662688866 0.0
0.0442785653519 0.0425900328407 0.0
0.0376608460469 0.0364221539531 0.0
0.0447279671593 0.0430404346481 0.0
0.0442785653519 0.0425900328407 0.0
0.052591141918 0.050324858082 0.0
0.0364137311134 0.0352269499269 0.0
0.0418590915451 0.0402966422578 0.0
0.0447279671593 0.0430404346481 0.0
0.0514419378918 0.0492488263726 0.0
0.0418590915451 0.0402966422578 0.0
0.0469427811865 0.0449707811865 0.0
0.0514419378918 0.0492488263726 0.0
0.0577166123025 0.0549882330196 0.0
0.0447279671593 0.0430404346481 0.0
0.0514419378918 0.0492488263726 0.0
0.052591141918 0.050324858082 0.0
0.0604915770095 0.0575969971146 0.0
0.0514419378918 0.0492488263726 0.0
0.0577166123025 0.0549882330196 0.0
0.0604915770095 0.0575969971146 0.0
0.0678795325113 0.0643374323651 0.0
0.0356550500731 0.0344662688866 0.0
0.0442785653519 0.0425900328407 0.0
0.0406493577422 0.0390849084549 0.0
0.0504651736274 0.0482720621082 0.0
0.0442785653519 0.0425900328407 0.0
0.052591141918 0.050324858082 0.0
0.0504651736274 0.0482720621082 0.0
0.0599270028854 0.0570334229905 0.0
0.0406493577422 0.0390849084549 0.0
0.0504651736274 0.0482720621082 0.0
0.0452602188135 0.0432872188135 0.0
0.0561617669804 0.0534353876975 0.0
0.0504651736274 0.0482720621082 0.0
0.0599270028854 0.0570334229905 0.0
0.0561617669804 0.0534353876975 0.0
0.0666635676349 0.0631234674887 0.0
0.052591141918 0.050324858082 0.0
0.0604915770095 0.0575969971146 0.0
0.0599270028854 0.0570334229905 0.0
0.0689185642207 0.0652854357793 0.0
0.0604915770095 0.0575969971146 0.0
0.0678795325113 0.0643374323651 0.0
0.0689185642207 0.0652854357793 0.0
0.0773262804032 0.0729533220161 0.0
0.0599270028854 0.0570334229905 0.0
0.0689185642207 0.0652854357793 0.0
0.0666635676349 0.0631234674887 0.0
0.0766376779839 0.0722647195968 0.0
0.0689185642207 0.0652854357793 0.0
0.0773262804032 0.0729533220161 0.0
0.0766376779839 0.0722647195968 0.0
0.08596 0.08078 0.0
0.0 0.0 0.0
0.0 0.0 0.0
0.0120863220161 0.0117560804032 0.0
0.0132335557605 0.0128378858524 0.0
0.0 0.0 0.0
0.0 0.0 0.0
0.0132335557605 0.0128378858524 0.0
0.0142571560665 0.0137876138416 0.0
0.0120863220161 0.0117560804032 0.0
0.0132335557605 0.0128378858524 0.0
0.0240134323651 0.0232540325113 0.0
0.0263432664154 0.0254101659497 0.0
0.0132335557605 0.0128378858524 0.0
0.0142571560665 0.0137876138416 0.0
0.0263432664154 0.0254101659497 0.0
0.0284240417718 0.027307858082 0.0
0.0 0.0 0.0
0.0 0.0 0.0
0.0142571560665 0.0137876138416 0.0
0.0151446976785 0.0145967445464 0.0
0.0 0.0 0.0
0.0 0.0 0.0
0.0151446976785 0.0145967445464 0.0
0.0158860116576 0.0152583414745 0.0
0.0142571560665 0.0137876138416 0.0
0.0151446976785 0.0145967445464 0.0
0.0284240417718 0.027307858082 0.0
0.0302309560569 0.0289310444089 0.0
0.0151446976785 0.0145967445464 0.0
0.0158860116576 0.0152583414745 0.0
0.0302309560569 0.0289310444089 0.0
0.0317434824382 0.0302656012516 0.0
0.0240134323651 0.0232540325113 0.0
0.0263432664154 0.0254101659497 0.0
0.0356712330196 0.0343616123025 0.0
0.039179608682 0.0375718764457 0.0
0.0263432664154 0.0254101659497 0.0
0.0284240417718 0.027307858082 0.0
0.039179608682 0.0375718764457 0.0
0.0423197567114 0.0404082242001 0.0
0.0356712330196 0.0343616123025 0.0
0.039179608682 0.0375718764457 0.0
0.0469427811865 0.0449707811865 0.0
0.051601470828 0.0492046422578 0.0
0.039179608682 0.0375718764457 0.0
0.0423197567114 0.0404082242001 0.0
0.051601470828 0.0492046422578 0.0
0.0557758312596 0.0529589499269 0.0
0.0284240417718 0.027307858082 0.0
0.0302309560569 0.0289310444089 0.0
0.0423197567114 0.0404082242001 0.0
0.0450515168371 0.04284510388 0.0
0.0302309560569 0.0289310444089 0.0
0.0317434824382 0.0302656012516 0.0
0.0450515168371 0.04284510388 0.0
0.0473377122132 0.0448600200231 0.0
0.0423197567114 0.0404082242001 0.0
0.0450515168371 0.04284510388 0.0
0.0557758312596 0.0529589499269 0.0
0.0594042603801 0.0561991889071 0.0
0.0450515168371 0.04284510388 0.0
0.0473377122132 0.0448600200231 0.0
0.0594042603801 0.0561991889071 0.0
0.0624567811865 0.0588962188135 0.0
0.0 0.0 0.0
0.0 0.0 0.0
0.0158860116576 0.0152583414745 0.0
0.0164729964269 0.0157672737562 0.0
0.0 0.0 0.0
0.0 0.0 0.0
0.0164729964269 0.0157672737562 0.0
0.0168972775179 0.0161198451528 0.0
0.0158860116576 0.0152583414745 0.0
0.0164729964269 0.0157672737562 0.0
0.0317434824382 0.0302656012516 0.0
0.0329410775083 0.0313002341397 0.0
0.0164729964269 0.0157672737562 0.0
0.0168972775179 0.0161198451528 0.0
0.0329410775083 0.0313002341397 0.0
0.0338088229584 0.0320270582282 0.0
0.0 0.0 0.0
0.0 0.0 0.0
0.0168972775179 0.0161198451528 0.0
0.0171550381987 0.0163140941664 0.0
0.0 0.0 0.0
0.0 0.0 0.0
0.0171550381987 0.0163140941664 0.0
0.0172426440323 0.0163497 0.0
0.0168972775179 0.0161198451528 0.0
0.0171550381987 0.0163140941664 0.0
0.0338088229584 0.0320270582282 0.0
0.034335709883 0.0324411334856 0.0
0.0171550381987 0.0163140941664 0.0
0.0172426440323 0.0163497 0.0
0.034335709883 0.0324411334856 0.0
0.0345138647302 0.0325406 0.0
0.0317434824382 0.0302656012516 0.0
0.0329410775083 0.0313002341397 0.0
0.0473377122132 0.0448600200231 0.0
0.0491509992752 0.046435533236 0.0
0.0329410775083 0.0313002341397 0.0
0.0338088229584 0.0320270582282 0.0
0.0491509992752 0.046435533236 0.0
0.0504602001789 0.0475592127781 0.0
0.0473377122132 0.0448600200231 0.0
0.0491509992752 0.046435533236 0.0
0.0624567811865 0.0588962188135 0.0
0.0648645823962 0.0610242461739 0.0
0.0491509992752 0.046435533236 0.0
0.0504602001789 0.0475592127781 0.0
0.0648645823962 0.0610242461739 0.0
0.0666182636247 0.062564617708 0.0
0.0338088229584 0.0320270582282 0.0
0.034335709883 0.0324411334856 0.0
0.0504602001789 0.0475592127781 0.0
0.0512653397954 0.0482211523946 0.0
0.034335709883 0.0324411334856 0.0
0.0345138647302 0.0325406 0.0
0.0512653397954 0.0482211523946 0.0
0.0515304660392 0.0484171 0.0
0.0504602001789 0.0475592127781 0.0
0.0512653397954 0.0482211523946 0.0
0.0666182636247 0.062564617708 0.0
0.0676767038476 0.0635013676253 0.0
0.0512653397954 0.0482211523946 0.0
0.0515304660392 0.0484171 0.0
0.0676767038476 0.0635013676253 0.0
0.0680435623731 0.0638268 0.0
0.0469427811865 0.0449707811865 0.0
0.051601470828 0.0492046422578 0.0
0.0577166123025 0.0549882330196 0.0
0.0634712867133 0.0602038263726 0.0
0.051601470828 0.0492046422578 0.0
0.0557758312596 0.0529589499269 0.0
0.0634712867133 0.0602038263726 0.0
0.0686292574458 0.0648464346481 0.0
0.0577166123025 0.0549882330196 0.0
0.0634712867133 0.0602038263726 0.0
0.0678795325113 0.0643374323651 0.0
0.074659488013 0.0704819971146 0.0
0.0634712867133 0.0602038263726 0.0
0.0686292574458 0.0648464346481 0.0
0.074659488013 0.0704819971146 0.0
0.0807329231046 0.075973858082 0.0
0.0557758312596 0.0529589499269 0.0
0.0594042603801 0.0561991889071 0.0
0.0686292574458 0.0648464346481 0.0
0.0731293785582 0.0688731539531 0.0
0.0594042603801 0.0561991889071 0.0
0.0624567811865 0.0588962188135 0.0
0.0731293785582 0.0688731539531 0.0
0.0768874135122 0.072245698007 0.0
0.0686292574458 0.0648464346481 0.0
0.0731293785582 0.0688731539531 0.0
0.0807329231046 0.075973858082 0.0
0.0860294996706 0.0807590328407 0.0
0.0731293785582 0.0688731539531 0.0
0.0768874135122 0.072245698007 0.0
0.0860294996706 0.0807590328407 0.0
0.0904710149495 0.0847922688866 0.0
0.0678795325113 0.0643374323651 0.0
0.074659488013 0.0704819971146 0.0
0.0773262804032 0.0729533220161 0.0
0.0850369965858 0.0799664357793 0.0
0.074659488013 0.0704819971146 0.0
0.0807329231046 0.075973858082 0.0
0.0850369965858 0.0799664357793 0.0
0.0919555579211 0.0862574229905 0.0
0.0773262804032 0.0729533220161 0.0
0.0850369965858 0.0799664357793 0.0
0.08596 0.08078 0.0
0.0945103220161 0.0885947195968 0.0
0.0850369965858 0.0799664357793 0.0
0.0919555579211 0.0862574229905 0.0
0.0945103220161 0.0885947195968 0.0
0.102173432365 0.0956304674887 0.0
0.0807329231046 0.075973858082 0.0
0.0860294996706 0.0807590328407 0.0
0.0919555579211 0.0862574229905 0.0
0.097980387179 0.0917660621082 0.0
0.0860294996706 0.0807590328407 0.0
0.0904710149495 0.0847922688866 0.0
0.097980387179 0.0917660621082 0.0
0.103035203064 0.0964339084549 0.0
0.0919555579211 0.0862574229905 0.0
0.097980387179 0.0917660621082 0.0
0.102173432365 0.0956304674887 0.0
0.10885023302 0.101811387697 0.0
0.097980387179 0.0917660621082 0.0
0.103035203064 0.0964339084549 0.0
0.10885023302 0.101811387697 0.0
0.114446781187 0.107080218813 0.0
0.0624567811865 0.0588962188135 0.0
0.0648645823962 0.0610242461739 0.0
0.0768874135122 0.072245698007 0.0
0.0798813284851 0.0749300507979 0.0
0.0648645823962 0.0610242461739 0.0
0.0666182636247 0.062564617708 0.0
0.0798813284851 0.0749300507979 0.0
0.082047369014 0.0769010913267 0.0
0.0768874135122 0.072245698007 0.0
0.0798813284851 0.0749300507979 0.0
0.0904710149495 0.0847922688866 0.0
0.0939972892227 0.0880302906722 0.0
0.0798813284851 0.0749300507979 0.0
0.082047369014 0.0769010913267 0.0
0.0939972892227 0.0880302906722 0.0
0.0965529231046 0.0904381770416 0.0
0.0666182636247 0.062564617708 0.0
0.0676767038476 0.0635013676253 0.0
0.082047369014 0.0769010913267 0.0
0.0833627691515 0.0781360536462 0.0
0.0676767038476 0.0635013676253 0.0
0.0680435623731 0.0638268 0.0
0.0833627691515 0.0781360536462 0.0
0.0838092246051 0.0786213 0.0
0.082047369014 0.0769010913267 0.0
0.0833627691515 0.0781360536462 0.0
0.0965529231046 0.0904381770416 0.0
0.0980969788642 0.0919875120342 0.0
0.0833627691515 0.0781360536462 0.0
0.0838092246051 0.0786213 0.0
0.0980969788642 0.0919875120342 0.0
0.0986190650226 0.0926583 0.0
0.0904710149495 0.0847922688866 0.0
0.0939972892227 0.0880302906722 0.0
0.103035203064 0.0964339084549 0.0
0.107048437252 0.100212142643 0.0
0.0939972892227 0.0880302906722 0.0
0.0965529231046 0.0904381770416 0.0
0.107048437252 0.100212142643 0.0
0.109952726756 0.103056401685 0.0
0.103035203064 0.0964339084549 0.0
0.107048437252 0.100212142643 0.0
0.114446781187 0.107080218813 0.0
0.118879612303 0.11137576698 0.0
0.107048437252 0.100212142643 0.0
0.109952726756 0.103056401685 0.0
0.118879612303 0.11137576698 0.0
0.122089532511 0.114644567635 0.0
0.0965529231046 0.0904381770416 0.0
0.0980969788642 0.0919875120342 0.0
0.109952726756 0.103056401685 0.0
0.111715046659 0.104928911728 0.0
0.0980969788642 0.0919875120342 0.0
0.0986190650226 0.0926583 0.0
0.111715046659 0.104928911728 0.0
0.112310560806 0.105803 0.0
0.109952726756 0.103056401685 0.0
0.111715046659 0.104928911728 0.0
0.122089532511 0.114644567635 0.0
0.124045280403 0.116840677984 0.0
0.111715046659 0.104928911728 0.0
0.112310560806 0.105803 0.0
0.124045280403 0.116840677984 0.0
0.1247 0.117928 0.0
0.0 0.0 0.0
0.0113544695968 0.0110216779839 0.0
0.0 0.0 0.0
0.0124288941476 0.0120324442395 0.0
0.0113544695968 0.0110216779839 0.0
0.0227442674887 0.0219815676349 0.0
0.0124288941476 0.0120324442395 0.0
0.0248797340503 0.0239467335846 0.0
0.0 0.0 0.0
0.0124288941476 0.0120324442395 0.0
0.0 0.0 0.0
0.0133920761584 0.0129238439335 0.0
0.0124288941476 0.0120324442395 0.0
0.0248797340503 0.0239467335846 0.0
0.0133920761584 0.0129238439335 0.0
0.026788641918 0.0256759582282 0.0
0.0227442674887 0.0219815676349 0.0
0.0340813876975 0.0327707669804 0.0
0.0248797340503 0.0239467335846 0.0
0.0372561235543 0.035649391318 0.0
0.0340813876975 0.0327707669804 0.0
0.0452602188135 0.0432872188135 0.0
0.0372561235543 0.035649391318 0.0
0.0494423577422 0.047047529172 0.0
0.0248797340503 0.0239467335846 0.0
0.0372561235543 0.035649391318 0.0
0.026788641918 0.0256759582282 0.0
0.0400837757999 0.0381762432886 0.0
0.0372561235543 0.035649391318 0.0
0.0494423577422 0.047047529172 0.0
0.0400837757999 0.0381762432886 0.0
0.0531540500731 0.0503451687404 0.0
0.0 0.0 0.0
0.0133920761584 0.0129238439335 0.0
0.0 0.0 0.0
0.0142340854536 0.0136893023215 0.0
0.0133920761584 0.0129238439335 0.0
0.026788641918 0.0256759582282 0.0
0.0142340854536 0.0136893023215 0.0
0.0284513555911 0.0271570439431 0.0
0.0 0.0 0.0
0.0142340854536 0.0136893023215 0.0
0.0 0.0 0.0
0.0149458985255 0.0143229883424 0.0
0.0142340854536 0.0136893023215 0.0
0.0284513555911 0.0271570439431 0.0
0.0149458985255 0.0143229883424 0.0
0.0298501987484 0.0283815175618 0.0
0.026788641918 0.0256759582282 0.0
0.0400837757999 0.0381762432886 0.0
0.0284513555911 0.0271570439431 0.0
0.04253579612 0.0403384831629 0.0
0.0400837757999 0.0381762432886 0.0
0.0531540500731 0.0503451687404 0.0
0.04253579612 0.0403384831629 0.0
0.0563568110929 0.0531557396199 0.0
0.0284513555911 0.0271570439431 0.0
0.04253579612 0.0403384831629 0.0
0.0298501987484 0.0283815175618 0.0
0.0445874799769 0.0421222877868 0.0
0.04253579612 0.0403384831629 0.0
0.0563568110929 0.0531557396199 0.0
0.0445874799769 0.0421222877868 0.0
0.0590207811865 0.0554732188135 0.0
0.0452602188135 0.0432872188135 0.0
0.0561617669804 0.0534353876975 0.0
0.0494423577422 0.047047529172 0.0
0.0613121736274 0.0580487132867 0.0
0.0561617669804 0.0534353876975 0.0
0.0666635676349 0.0631234674887 0.0
0.0613121736274 0.0580487132867 0.0
0.0727340028854 0.068560511987 0.0
0.0494423577422 0.047047529172 0.0
0.0613121736274 0.0580487132867 0.0
0.0531540500731 0.0503451687404 0.0
0.0658655653519 0.0620907425542 0.0
0.0613121736274 0.0580487132867 0.0
0.0727340028854 0.068560511987 0.0
0.0658655653519 0.0620907425542 0.0
0.078079141918 0.0733270768954 0.0
0.0666635676349 0.0631234674887 0.0
0.0766376779839 0.0722647195968 0.0
0.0727340028854 0.068560511987 0.0
0.0835725642207 0.0785030034142 0.0
0.0766376779839 0.0722647195968 0.0