# vtk DataFile Version 3.0
#This file was generated by the deal.II library on 2015/11/9 at 12:22:47
ASCII
DATASET UNSTRUCTURED_GRID

POINTS 4096 double
0 0 0
0.03125 0 0
0 0.03125 0
0.03125 0.03125 0
0.03125 0 0
0.0625 0 0
0.03125 0.03125 0
0.0625 0.03125 0
0 0.03125 0
0.03125 0.03125 0
0 0.0625 0
0.03125 0.0625 0
0.03125 0.03125 0
0.0625 0.03125 0
0.03125 0.0625 0
0.0625 0.0625 0
0.0625 0 0
0.09375 0 0
0.0625 0.03125 0
0.09375 0.03125 0
0.09375 0 0
0.125 0 0
0.09375 0.03125 0
0.125 0.03125 0
0.0625 0.03125 0
0.09375 0.03125 0
0.0625 0.0625 0
0.09375 0.0625 0
0.09375 0.03125 0
0.125 0.03125 0
0.09375 0.0625 0
0.125 0.0625 0
0 0.0625 0
0.03125 0.0625 0
0 0.09375 0
0.03125 0.09375 0
0.03125 0.0625 0
0.0625 0.0625 0
0.03125 0.09375 0
0.0625 0.09375 0
0 0.09375 0
0.03125 0.09375 0
0 0.125 0
0.03125 0.125 0
0.03125 0.09375 0
0.0625 0.09375 0
0.03125 0.125 0
0.0625 0.125 0
0.0625 0.0625 0
0.09375 0.0625 0
0.0625 0.09375 0
0.09375 0.09375 0
0.09375 0.0625 0
0.125 0.0625 0
0.09375 0.09375 0
0.125 0.09375 0
0.0625 0.09375 0
0.09375 0.09375 0
0.0625 0.125 0
0.09375 0.125 0
0.09375 0.09375 0
0.125 0.09375 0
0.09375 0.125 0
0.125 0.125 0
0.125 0 0
0.15625 0 0
0.125 0.03125 0
0.15625 0.03125 0
0.15625 0 0
0.1875 0 0
0.15625 0.03125 0
0.1875 0.03125 0
0.125 0.03125 0
0.15625 0.03125 0
0.125 0.0625 0
0.15625 0.0625 0
0.15625 0.03125 0
0.1875 0.03125 0
0.15625 0.0625 0
0.1875 0.0625 0
0.1875 0 0
0.21875 0 0
0.1875 0.03125 0
0.21875 0.03125 0
0.21875 0 0
0.25 0 0
0.21875 0.03125 0
0.25 0.03125 0
0.1875 0.03125 0
0.21875 0.03125 0
0.1875 0.0625 0
0.21875 0.0625 0
0.21875 0.03125 0
0.25 0.03125 0
0.21875 0.0625 0
0.25 0.0625 0
0.125 0.0625 0
0.15625 0.0625 0
0.125 0.09375 0
0.15625 0.09375 0
0.15625 0.0625 0
0.1875 0.0625 0
0.15625 0.09375 0
0.1875 0.09375 0
0.125 0.09375 0
0.15625 0.09375 0
0.125 0.125 0
0.15625 0.125 0
0.15625 0.09375 0
0.1875 0.09375 0
0.15625 0.125 0
0.1875 0.125 0
0.1875 0.0625 0
0.21875 0.0625 0
0.1875 0.09375 0
0.21875 0.09375 0
0.21875 0.0625 0
0.25 0.0625 0
0.21875 0.09375 0
0.25 0.09375 0
0.1875 0.09375 0
0.21875 0.09375 0
0.1875 0.125 0
0.21875 0.125 0
0.21875 0.09375 0
0.25 0.09375 0
0.21875 0.125 0
0.25 0.125 0
0 0.125 0
0.03125 0.125 0
0 0.15625 0
0.03125 0.15625 0
0.03125 0.125 0
0.0625 0.125 0
0.03125 0.15625 0
0.0625 0.15625 0
0 0.15625 0
0.03125 0.15625 0
0 0.1875 0
0.03125 0.1875 0
0.03125 0.15625 0
0.0625 0.15625 0
0.03125 0.1875 0
0.0625 0.1875 0
0.0625 0.125 0
0.09375 0.125 0
0.0625 0.15625 0
0.09375 0.15625 0
0.09375 0.125 0
0.125 0.125 0
0.09375 0.15625 0
0.125 0.15625 0
0.0625 0.15625 0
0.09375 0.15625 0
0.0625 0.1875 0
0.09375 0.1875 0
0.09375 0.15625 0
0.125 0.15625 0
0.09375 0.1875 0
0.125 0.1875 0
0 0.1875 0
0.03125 0.1875 0
0 0.21875 0
0.03125 0.21875 0
0.03125 0.1875 0
0.0625 0.1875 0
0.03125 0.21875 0
0.0625 0.21875 0
0 0.21875 0
0.03125 0.21875 0
0 0.25 0
0.03125 0.25 0
0.03125 0.21875 0
0.0625 0.21875 0
0.03125 0.25 0
0.0625 0.25 0
0.0625 0.1875 0
0.09375 0.1875 0
0.0625 0.21875 0
0.09375 0.21875 0
0.09375 0.1875 0
0.125 0.1875 0
0.09375 0.21875 0
0.125 0.21875 0
0.0625 0.21875 0
0.09375 0.21875 0
0.0625 0.25 0
0.09375 0.25 0
0.09375 0.21875 0
0.125 0.21875 0
0.09375 0.25 0
0.125 0.25 0
0.125 0.125 0
0.15625 0.125 0
0.125 0.15625 0
0.15625 0.15625 0
0.15625 0.125 0
0.1875 0.125 0
0.15625 0.15625 0
0.1875 0.15625 0
0.125 0.15625 0
0.15625 0.15625 0
0.125 0.1875 0
0.15625 0.1875 0
0.15625 0.15625 0
0.1875 0.15625 0
0.15625 0.1875 0
0.1875 0.1875 0
0.1875 0.125 0
0.21875 0.125 0
0.1875 0.15625 0
0.21875 0.15625 0
0.21875 0.125 0
0.25 0.125 0
0.21875 0.15625 0
0.25 0.15625 0
0.1875 0.15625 0
0.21875 0.15625 0
0.1875 0.1875 0
0.21875 0.1875 0
0.21875 0.15625 0
0.25 0.15625 0
0.21875 0.1875 0
0.25 0.1875 0
0.125 0.1875 0
0.15625 0.1875 0
0.125 0.21875 0
0.15625 0.21875 0
0.15625 0.1875 0
0.1875 0.1875 0
0.15625 0.21875 0
0.1875 0.21875 0
0.125 0.21875 0
0.15625 0.21875 0
0.125 0.25 0
0.15625 0.25 0
0.15625 0.21875 0
0.1875 0.21875 0
0.15625 0.25 0
0.1875 0.25 0
0.1875 0.1875 0
0.21875 0.1875 0
0.1875 0.21875 0
0.21875 0.21875 0
0.21875 0.1875 0
0.25 0.1875 0
0.21875 0.21875 0
0.25 0.21875 0
0.1875 0.21875 0
0.21875 0.21875 0
0.1875 0.25 0
0.21875 0.25 0
0.21875 0.21875 0
0.25 0.21875 0
0.21875 0.25 0
0.25 0.25 0
0.25 0 0
0.28125 0 0
0.25 0.03125 0
0.28125 0.03125 0
0.28125 0 0
0.3125 0 0
0.28125 0.03125 0
0.3125 0.03125 0
0.25 0.03125 0
0.28125 0.03125 0
0.25 0.0625 0
0.28125 0.0625 0
0.28125 0.03125 0
0.3125 0.03125 0
0.28125 0.0625 0
0.3125 0.0625 0
0.3125 0 0
0.34375 0 0
0.3125 0.03125 0
0.34375 0.03125 0
0.34375 0 0
0.375 0 0
0.34375 0.03125 0
0.375 0.03125 0
0.3125 0.03125 0
0.34375 0.03125 0
0.3125 0.0625 0
0.34375 0.0625 0
0.34375 0.03125 0
0.375 0.03125 0
0.34375 0.0625 0
0.375 0.0625 0
0.25 0.0625 0
0.28125 0.0625 0
0.25 0.09375 0
0.28125 0.09375 0
0.28125 0.0625 0
0.3125 0.0625 0
0.28125 0.09375 0
0.3125 0.09375 0
0.25 0.09375 0
0.28125 0.09375 0
0.25 0.125 0
0.28125 0.125 0
0.28125 0.09375 0
0.3125 0.09375 0
0.28125 0.125 0
0.3125 0.125 0
0.3125 0.0625 0
0.34375 0.0625 0
0.3125 0.09375 0
0.34375 0.09375 0
0.34375 0.0625 0
0.375 0.0625 0
0.34375 0.09375 0
0.375 0.09375 0
0.3125 0.09375 0
0.34375 0.09375 0
0.3125 0.125 0
0.34375 0.125 0
0.34375 0.09375 0
0.375 0.09375 0
0.34375 0.125 0
0.375 0.125 0
0.375 0 0
0.40625 0 0
0.375 0.03125 0
0.40625 0.03125 0
0.40625 0 0
0.4375 0 0
0.40625 0.03125 0
0.4375 0.03125 0
0.375 0.03125 0
0.40625 0.03125 0
0.375 0.0625 0
0.40625 0.0625 0
0.40625 0.03125 0
0.4375 0.03125 0
0.40625 0.0625 0
0.4375 0.0625 0
0.4375 0 0
0.46875 0 0
0.4375 0.03125 0
0.46875 0.03125 0
0.46875 0 0
0.5 0 0
0.46875 0.03125 0
0.5 0.03125 0
0.4375 0.03125 0
0.46875 0.03125 0
0.4375 0.0625 0
0.46875 0.0625 0
0.46875 0.03125 0
0.5 0.03125 0
0.46875 0.0625 0
0.5 0.0625 0
0.375 0.0625 0
0.40625 0.0625 0
0.375 0.09375 0
0.40625 0.09375 0
0.40625 0.0625 0
0.4375 0.0625 0
0.40625 0.09375 0
0.4375 0.09375 0
0.375 0.09375 0
0.40625 0.09375 0
0.375 0.125 0
0.40625 0.125 0
0.40625 0.09375 0
0.4375 0.09375 0
0.40625 0.125 0
0.4375 0.125 0
0.4375 0.0625 0
0.46875 0.0625 0
0.4375 0.09375 0
0.46875 0.09375 0
0.46875 0.0625 0
0.5 0.0625 0
0.46875 0.09375 0
0.5 0.09375 0
0.4375 0.09375 0
0.46875 0.09375 0
0.4375 0.125 0
0.46875 0.125 0
0.46875 0.09375 0
0.5 0.09375 0
0.46875 0.125 0
0.5 0.125 0
0.25 0.125 0
0.28125 0.125 0
0.25 0.15625 0
0.28125 0.15625 0
0.28125 0.125 0
0.3125 0.125 0
0.28125 0.15625 0
0.3125 0.15625 0
0.25 0.15625 0
0.28125 0.15625 0
0.25 0.1875 0
0.28125 0.1875 0
0.28125 0.15625 0
0.3125 0.15625 0
0.28125 0.1875 0
0.3125 0.1875 0
0.3125 0.125 0
0.34375 0.125 0
0.3125 0.15625 0
0.34375 0.15625 0
0.34375 0.125 0
0.375 0.125 0
0.34375 0.15625 0
0.375 0.15625 0
0.3125 0.15625 0
0.34375 0.15625 0
0.3125 0.1875 0
0.34375 0.1875 0
0.34375 0.15625 0
0.375 0.15625 0
0.34375 0.1875 0
0.375 0.1875 0
0.25 0.1875 0
0.28125 0.1875 0
0.25 0.21875 0
0.28125 0.21875 0
0.28125 0.1875 0
0.3125 0.1875 0
0.28125 0.21875 0
0.3125 0.21875 0
0.25 0.21875 0
0.28125 0.21875 0
0.25 0.25 0
0.28125 0.25 0
0.28125 0.21875 0
0.3125 0.21875 0
0.28125 0.25 0
0.3125 0.25 0
0.3125 0.1875 0
0.34375 0.1875 0
0.3125 0.21875 0
0.34375 0.21875 0
0.34375 0.1875 0
0.375 0.1875 0
0.34375 0.21875 0
0.375 0.21875 0
0.3125 0.21875 0
0.34375 0.21875 0
0.3125 0.25 0
0.34375 0.25 0
0.34375 0.21875 0
0.375 0.21875 0
0.34375 0.25 0
0.375 0.25 0
0.375 0.125 0
0.40625 0.125 0
0.375 0.15625 0
0.40625 0.15625 0
0.40625 0.125 0
0.4375 0.125 0
0.40625 0.15625 0
0.4375 0.15625 0
0.375 0.15625 0
0.40625 0.15625 0
0.375 0.1875 0
0.40625 0.1875 0
0.40625 0.15625 0
0.4375 0.15625 0
0.40625 0.1875 0
0.4375 0.1875 0
0.4375 0.125 0
0.46875 0.125 0
0.4375 0.15625 0
0.46875 0.15625 0
0.46875 0.125 0
0.5 0.125 0
0.46875 0.15625 0
0.5 0.15625 0
0.4375 0.15625 0
0.46875 0.15625 0
0.4375 0.1875 0
0.46875 0.1875 0
0.46875 0.15625 0
0.5 0.15625 0
0.46875 0.1875 0
0.5 0.1875 0
0.375 0.1875 0
0.40625 0.1875 0
0.375 0.21875 0
0.40625 0.21875 0
0.40625 0.1875 0
0.4375 0.1875 0
0.40625 0.21875 0
0.4375 0.21875 0
0.375 0.21875 0
0.40625 0.21875 0
0.375 0.25 0
0.40625 0.25 0
0.40625 0.21875 0
0.4375 0.21875 0
0.40625 0.25 0
0.4375 0.25 0
0.4375 0.1875 0
0.46875 0.1875 0
0.4375 0.21875 0
0.46875 0.21875 0
0.46875 0.1875 0
0.5 0.1875 0
0.46875 0.21875 0
0.5 0.21875 0
0.4375 0.21875 0
0.46875 0.21875 0
0.4375 0.25 0
0.46875 0.25 0
0.46875 0.21875 0
0.5 0.21875 0
0.46875 0.25 0
0.5 0.25 0
0 0.25 0
0.03125 0.25 0
0 0.28125 0
0.03125 0.28125 0
0.03125 0.25 0
0.0625 0.25 0
0.03125 0.28125 0
0.0625 0.28125 0
0 0.28125 0
0.03125 0.28125 0
0 0.3125 0
0.03125 0.3125 0
0.03125 0.28125 0
0.0625 0.28125 0
0.03125 0.3125 0
0.0625 0.3125 0
0.0625 0.25 0
0.09375 0.25 0
0.0625 0.28125 0
0.09375 0.28125 0
0.09375 0.25 0
0.125 0.25 0
0.09375 0.28125 0
0.125 0.28125 0
0.0625 0.28125 0
0.09375 0.28125 0
0.0625 0.3125 0
0.09375 0.3125 0
0.09375 0.28125 0
0.125 0.28125 0
0.09375 0.3125 0
0.125 0.3125 0
0 0.3125 0
0.03125 0.3125 0
0 0.34375 0
0.03125 0.34375 0
0.03125 0.3125 0
0.0625 0.3125 0
0.03125 0.34375 0
0.0625 0.34375 0
0 0.34375 0
0.03125 0.34375 0
0 0.375 0
0.03125 0.375 0
0.03125 0.34375 0
0.0625 0.34375 0
0.03125 0.375 0
0.0625 0.375 0
0.0625 0.3125 0
0.09375 0.3125 0
0.0625 0.34375 0
0.09375 0.34375 0
0.09375 0.3125 0
0.125 0.3125 0
0.09375 0.34375 0
0.125 0.34375 0
0.0625 0.34375 0
0.09375 0.34375 0
0.0625 0.375 0
0.09375 0.375 0
0.09375 0.34375 0
0.125 0.34375 0
0.09375 0.375 0
0.125 0.375 0
0.125 0.25 0
0.15625 0.25 0
0.125 0.28125 0
0.15625 0.28125 0
0.15625 0.25 0
0.1875 0.25 0
0.15625 0.28125 0
0.1875 0.28125 0
0.125 0.28125 0
0.15625 0.28125 0
0.125 0.3125 0
0.15625 0.3125 0
0.15625 0.28125 0
0.1875 0.28125 0
0.15625 0.3125 0
0.1875 0.3125 0
0.1875 0.25 0
0.21875 0.25 0
0.1875 0.28125 0
0.21875 0.28125 0
0.21875 0.25 0
0.25 0.25 0
0.21875 0.28125 0
0.25 0.28125 0
0.1875 0.28125 0
0.21875 0.28125 0
0.1875 0.3125 0
0.21875 0.3125 0
0.21875 0.28125 0
0.25 0.28125 0
0.21875 0.3125 0
0.25 0.3125 0
0.125 0.3125 0
0.15625 0.3125 0
0.125 0.34375 0
0.15625 0.34375 0
0.15625 0.3125 0
0.1875 0.3125 0
0.15625 0.34375 0
0.1875 0.34375 0
0.125 0.34375 0
[...]
POINT_DATA 4096
VECTORS U double
0 0 0
0 0 0
0 0 0
-0.00212364 0.00531599 0
0 0 0
0 0 0
-0.00212364 0.00531599 0
-0.0115724 0.0105317 0
0 0 0
-0.00212364 0.00531599 0
0 0 0
-0.00416714 0.0179342 0
-0.00212364 0.00531599 0
-0.0115724 0.0105317 0
-0.00416714 0.0179342 0
-0.0227151 0.0353877 0
0 0 0
0 0 0
-0.0115724 0.0105317 0
-0.0279699 0.0154524 0
0 0 0
0 0 0
-0.0279699 0.0154524 0
-0.0506471 0.0199208 0
-0.0115724 0.0105317 0
-0.0279699 0.0154524 0
-0.0227151 0.0353877 0
-0.0548693 0.0517069 0
-0.0279699 0.0154524 0
-0.0506471 0.0199208 0
-0.0548693 0.0517069 0
-0.0993169 0.0663223 0
0 0 0
-0.00416714 0.0179342 0
0 0 0
-0.00597556 0.0374427 0
-0.00416714 0.0179342 0
-0.0227151 0.0353877 0
-0.00597556 0.0374427 0
-0.0328412 0.0737322 0
0 0 0
-0.00597556 0.0374427 0
0 0 0
-0.00742239 0.0631409 0
-0.00597556 0.0374427 0
-0.0328412 0.0737322 0
-0.00742239 0.0631409 0
-0.0414435 0.124191 0
-0.0227151 0.0353877 0
-0.0548693 0.0517069 0
-0.0328412 0.0737322 0
-0.0794463 0.107523 0
-0.0548693 0.0517069 0
-0.0993169 0.0663223 0
-0.0794463 0.107523 0
-0.143879 0.137605 0
-0.0328412 0.0737322 0
-0.0794463 0.107523 0
-0.0414435 0.124191 0
-0.100582 0.180899 0
-0.0794463 0.107523 0
-0.143879 0.137605 0
-0.100582 0.180899 0
-0.182399 0.231212 0
0 0 0
0 0 0
-0.0506471 0.0199208 0
-0.0786873 0.0238033 0
0 0 0
0 0 0
-0.0786873 0.0238033 0
-0.110968 0.0269901 0
-0.0506471 0.0199208 0
-0.0786873 0.0238033 0
-0.0993169 0.0663223 0
-0.154265 0.0787457 0
-0.0786873 0.0238033 0
-0.110968 0.0269901 0
-0.154265 0.0787457 0
-0.217518 0.0885777 0
0 0 0
0 0 0
-0.110968 0.0269901 0
-0.146205 0.0293977 0
0 0 0
0 0 0
-0.146205 0.0293977 0
-0.183004 0.0309708 0
-0.110968 0.0269901 0
-0.146205 0.0293977 0
-0.217518 0.0885777 0
-0.286563 0.0955182 0
-0.146205 0.0293977 0
-0.183004 0.0309708 0
-0.286563 0.0955182 0
-0.35867 0.0993745 0
-0.0993169 0.0663223 0
-0.154265 0.0787457 0
-0.143879 0.137605 0
-0.223538 0.162931 0
-0.154265 0.0787457 0
-0.217518 0.0885777 0
-0.223538 0.162931 0
-0.315242 0.182643 0
-0.143879 0.137605 0
-0.223538 0.162931 0
-0.182399 0.231212 0
-0.283586 0.273342 0
-0.223538 0.162931 0
-0.315242 0.182643 0
-0.283586 0.273342 0
-0.400095 0.305825 0
-0.217518 0.0885777 0
-0.286563 0.0955182 0
-0.315242 0.182643 0
-0.415348 0.196099 0
-0.286563 0.0955182 0
-0.35867 0.0993745 0
-0.415348 0.196099 0
-0.519899 0.202892 0
-0.315242 0.182643 0
-0.415348 0.196099 0
-0.400095 0.305825 0
-0.527298 0.327562 0
-0.415348 0.196099 0
-0.519899 0.202892 0
-0.527298 0.327562 0
-0.660164 0.337864 0
0 0 0
-0.00742239 0.0631409 0
0 0 0
-0.00840334 0.0940825 0
-0.00742239 0.0631409 0
-0.0414435 0.124191 0
-0.00840334 0.0940825 0
-0.0480926 0.184913 0
0 0 0
-0.00840334 0.0940825 0
0 0 0
-0.00883686 0.129117 0
-0.00840334 0.0940825 0
-0.0480926 0.184913 0
-0.00883686 0.129117 0
-0.0524453 0.253645 0
-0.0414435 0.124191 0
-0.100582 0.180899 0
-0.0480926 0.184913 0
-0.117318 0.269148 0
-0.100582 0.180899 0
-0.182399 0.231212 0
-0.117318 0.269148 0
-0.213206 0.34372 0
-0.0480926 0.184913 0
-0.117318 0.269148 0
-0.0524453 0.253645 0
-0.128878 0.369003 0
-0.117318 0.269148 0
-0.213206 0.34372 0
-0.128878 0.369003 0
-0.234943 0.470975 0
0 0 0
-0.00883686 0.129117 0
0 0 0
-0.00866601 0.166933 0
-0.00883686 0.129117 0
-0.0524453 0.253645 0
-0.00866601 0.166933 0
-0.0542541 0.327822 0
0 0 0
-0.00866601 0.166933 0
0 0 0
-0.00786025 0.206112 0
-0.00866601 0.166933 0
-0.0542541 0.327822 0
-0.00786025 0.206112 0
-0.0533762 0.404665 0
-0.0524453 0.253645 0
-0.128878 0.369003 0
-0.0542541 0.327822 0
-0.134699 0.476745 0
-0.128878 0.369003 0
-0.234943 0.470975 0
-0.134699 0.476745 0
-0.246616 0.608242 0
-0.0542541 0.327822 0
-0.134699 0.476745 0
-0.0533762 0.404665 0
-0.134449 0.588341 0
-0.134699 0.476745 0
-0.246616 0.608242 0
-0.134449 0.588341 0
-0.247633 0.750394 0
-0.182399 0.231212 0
-0.283586 0.273342 0
-0.213206 0.34372 0
-0.331869 0.405952 0
-0.283586 0.273342 0
-0.400095 0.305825 0
-0.331869 0.405952 0
-0.468552 0.45364 0
-0.213206 0.34372 0
-0.331869 0.405952 0
-0.234943 0.470975 0
-0.366321 0.55587 0
-0.331869 0.405952 0
-0.468552 0.45364 0
-0.366321 0.55587 0
-0.517735 0.620651 0
-0.400095 0.305825 0
-0.527298 0.327562 0
-0.468552 0.45364 0
-0.617816 0.485139 0
-0.527298 0.327562 0
-0.660164 0.337864 0
-0.617816 0.485139 0
-0.773753 0.499418 0
-0.468552 0.45364 0
-0.617816 0.485139 0
-0.517735 0.620651 0
-0.683148 0.663052 0
-0.617816 0.485139 0
-0.773753 0.499418 0
-0.683148 0.663052 0
-0.856 0.681654 0
-0.234943 0.470975 0
-0.366321 0.55587 0
-0.246616 0.608242 0
-0.385425 0.71753 0
-0.366321 0.55587 0
-0.517735 0.620651 0
-0.385425 0.71753 0
-0.545528 0.800673 0
-0.246616 0.608242 0
-0.385425 0.71753 0
-0.247633 0.750394 0
-0.388268 0.884905 0
-0.385425 0.71753 0
-0.545528 0.800673 0
-0.388268 0.884905 0
-0.550653 0.987003 0
-0.517735 0.620651 0
-0.683148 0.663052 0
-0.545528 0.800673 0
-0.720525 0.854729 0
-0.683148 0.663052 0
-0.856 0.681654 0
-0.720525 0.854729 0
-0.903459 0.877863 0
-0.545528 0.800673 0
-0.720525 0.854729 0
-0.550653 0.987003 0
-0.728272 1.05305 0
-0.720525 0.854729 0
-0.903459 0.877863 0
-0.728272 1.05305 0
-0.91404 1.08078 0
0 0 0
0 0 0
-0.183004 0.0309708 0
-0.219917 0.0316834 0
0 0 0
0 0 0
-0.219917 0.0316834 0
-0.255491 0.0315397 0
-0.183004 0.0309708 0
-0.219917 0.0316834 0
-0.35867 0.0993745 0
-0.430998 0.100068 0
-0.219917 0.0316834 0
-0.255491 0.0315397 0
-0.430998 0.100068 0
-0.500706 0.097634 0
0 0 0
0 0 0
-0.255491 0.0315397 0
-0.288332 0.0305732 0
0 0 0
0 0 0
-0.288332 0.0305732 0
-0.317154 0.0288452 0
-0.255491 0.0315397 0
-0.288332 0.0305732 0
-0.500706 0.097634 0
-0.56506 0.0922229 0
-0.288332 0.0305732 0
-0.317154 0.0288452 0
-0.56506 0.0922229 0
-0.621538 0.0840909 0
-0.35867 0.0993745 0
-0.430998 0.100068 0
-0.519899 0.202892 0
-0.624777 0.202864 0
-0.430998 0.100068 0
-0.500706 0.097634 0
-0.624777 0.202864 0
-0.725858 0.19611 0
-0.519899 0.202892 0
-0.624777 0.202864 0
-0.660164 0.337864 0
-0.793455 0.33647 0
-0.624777 0.202864 0
-0.725858 0.19611 0
-0.793455 0.33647 0
-0.921929 0.323557 0
-0.500706 0.097634 0
-0.56506 0.0922229 0
-0.725858 0.19611 0
-0.819177 0.182973 0
-0.56506 0.0922229 0
-0.621538 0.0840909 0
-0.819177 0.182973 0
-0.90108 0.164029 0
-0.725858 0.19611 0
-0.819177 0.182973 0
-0.921929 0.323557 0
-1.04055 0.299731 0
-0.819177 0.182973 0
-0.90108 0.164029 0
-1.04055 0.299731 0
-1.14465 0.266003 0
0 0 0
0 0 0
-0.317154 0.0288452 0
-0.340829 0.0264424 0
0 0 0
0 0 0
-0.340829 0.0264424 0
-0.358433 0.023473 0
-0.317154 0.0288452 0
-0.340829 0.0264424 0
-0.621538 0.0840909 0
-0.667932 0.0735905 0
-0.340829 0.0264424 0
-0.358433 0.023473 0
-0.667932 0.0735905 0
-0.702428 0.0611571 0
0 0 0
0 0 0
-0.358433 0.023473 0
-0.369277 0.0200627 0
0 0 0
0 0 0
-0.369277 0.0200627 0
-0.372938 0.0163497 0
-0.358433 0.023473 0
-0.369277 0.0200627 0
-0.702428 0.0611571 0
-0.723678 0.0472915 0
-0.369277 0.0200627 0
-0.372938 0.0163497 0
-0.723678 0.0472915 0
-0.730853 0.0325406 0
-0.621538 0.0840909 0
-0.667932 0.0735905 0
-0.90108 0.164029 0
-0.968359 0.140066 0
-0.667932 0.0735905 0
-0.702428 0.0611571 0
-0.968359 0.140066 0
-1.01839 0.112053 0
-0.90108 0.164029 0
-0.968359 0.140066 0
-1.14465 0.266003 0
-1.23018 0.223747 0
-0.968359 0.140066 0
-1.01839 0.112053 0
-1.23018 0.223747 0
-1.29377 0.17465 0
-0.702428 0.0611571 0
-0.723678 0.0472915 0
-1.01839 0.112053 0
-1.0492 0.0810998 0
-0.723678 0.0472915 0
-0.730853 0.0325406 0
-1.0492 0.0810998 0
-1.05961 0.0484171 0
-1.01839 0.112053 0
-1.0492 0.0810998 0
-1.29377 0.17465 0
-1.33295 0.120642 0
-1.0492 0.0810998 0
-1.05961 0.0484171 0
-1.33295 0.120642 0
-1.34617 0.0638268 0
-0.660164 0.337864 0
-0.793455 0.33647 0
-0.773753 0.499418 0
-0.93021 0.496094 0
-0.793455 0.33647 0
-0.921929 0.323557 0
-0.93021 0.496094 0
-1.08103 0.475446 0
-0.773753 0.499418 0
-0.93021 0.496094 0
-0.856 0.681654 0
-1.02946 0.675937 0
-0.93021 0.496094 0
-1.08103 0.475446 0
-1.02946 0.675937 0
-1.1967 0.6463 0
-0.921929 0.323557 0
-1.04055 0.299731 0
-1.08103 0.475446 0
-1.22028 0.438403 0
-1.04055 0.299731 0
-1.14465 0.266003 0
-1.22028 0.438403 0
-1.34252 0.386505 0
-1.08103 0.475446 0
-1.22028 0.438403 0
-1.1967 0.6463 0
-1.35113 0.594039 0
-1.22028 0.438403 0
-1.34252 0.386505 0
-1.35113 0.594039 0
-1.48669 0.521301 0
-0.856 0.681654 0
-1.02946 0.675937 0
-0.903459 0.877863 0
-1.08709 0.86941 0
-1.02946 0.675937 0
-1.1967 0.6463 0
-1.08709 0.86941 0
-1.26416 0.829897 0
-0.903459 0.877863 0
-1.08709 0.86941 0
-0.91404 1.08078 0
-1.10058 1.06938 0
-1.08709 0.86941 0
-1.26416 0.829897 0
-1.10058 1.06938 0
-1.28051 1.01951 0
-1.1967 0.6463 0
-1.35113 0.594039 0
-1.26416 0.829897 0
-1.4277 0.761024 0
-1.35113 0.594039 0
-1.48669 0.521301 0
-1.4277 0.761024 0
-1.57127 0.665591 0
-1.26416 0.829897 0
-1.4277 0.761024 0
-1.28051 1.01951 0
-1.44672 0.933281 0
-1.4277 0.761024 0
-1.57127 0.665591 0
-1.44672 0.933281 0
-1.59266 0.814187 0
-1.14465 0.266003 0
-1.23018 0.223747 0
-1.34252 0.386505 0
-1.44293 0.321842 0
-1.23018 0.223747 0
-1.29377 0.17465 0
-1.44293 0.321842 0
-1.5176 0.246977 0
-1.34252 0.386505 0
-1.44293 0.321842 0
-1.48669 0.521301 0
-1.59806 0.430993 0
-1.44293 0.321842 0
-1.5176 0.246977 0
-1.59806 0.430993 0
-1.68088 0.326675 0
-1.29377 0.17465 0
-1.33295 0.120642 0
-1.5176 0.246977 0
-1.5636 0.16484 0
-1.33295 0.120642 0
-1.34617 0.0638268 0
-1.5636 0.16484 0
-1.57913 0.0786213 0
-1.5176 0.246977 0
-1.5636 0.16484 0
-1.68088 0.326675 0
-1.73191 0.21242 0
-1.5636 0.16484 0
-1.57913 0.0786213 0
-1.73191 0.21242 0
-1.74914 0.0926583 0
-1.48669 0.521301 0
-1.59806 0.430993 0
-1.57127 0.665591 0
-1.68923 0.547396 0
-1.59806 0.430993 0
-1.68088 0.326675 0
-1.68923 0.547396 0
-1.77696 0.411082 0
-1.57127 0.665591 0
-1.68923 0.547396 0
-1.59266 0.814187 0
-1.71259 0.666946 0
-1.68923 0.547396 0
-1.77696 0.411082 0
-1.71259 0.666946 0
-1.80179 0.497328 0
-1.68088 0.326675 0
-1.73191 0.21242 0
-1.77696 0.411082 0
-1.83101 0.261959 0
-1.73191 0.21242 0
-1.74914 0.0926583 0
-1.83101 0.261959 0
-1.84926 0.105803 0
-1.77696 0.411082 0
-1.83101 0.261959 0
-1.80179 0.497328 0
-1.85674 0.311931 0
-1.83101 0.261959 0
-1.84926 0.105803 0
-1.85674 0.311931 0
-1.8753 0.117928 0
0 0 0
-0.00786025 0.206112 0
0 0 0
-0.00641662 0.245183 0
-0.00786025 0.206112 0
-0.0533762 0.404665 0
-0.00641662 0.245183 0
-0.0497781 0.481288 0
0 0 0
-0.00641662 0.245183 0
0 0 0
-0.00436001 0.282672 0
-0.00641662 0.245183 0
-0.0497781 0.481288 0
-0.00436001 0.282672 0
-0.0435375 0.554806 0
-0.0533762 0.404665 0
-0.134449 0.588341 0
-0.0497781 0.481288 0
-0.128036 0.699606 0
-0.134449 0.588341 0
-0.247633 0.750394 0
-0.128036 0.699606 0
-0.237823 0.892104 0
-0.0497781 0.481288 0
-0.128036 0.699606 0
-0.0435375 0.554806 0
-0.115618 0.806354 0
-0.128036 0.699606 0
-0.237823 0.892104 0
-0.115618 0.806354 0
-0.217444 1.02805 0
0 0 0
-0.00436001 0.282672 0
0 0 0
-0.00174237 0.317166 0
-0.00436001 0.282672 0
-0.0435375 0.554806 0
-0.00174237 0.317166 0
-0.0348405 0.622448 0
0 0 0
-0.00174237 0.317166 0
0 0 0
0.00135904 0.347363 0
-0.00174237 0.317166 0
-0.0348405 0.622448 0
0.00135904 0.347363 0
-0.0239751 0.681663 0
-0.0435375 0.554806 0
-0.115618 0.806354 0
-0.0348405 0.622448 0
-0.0975921 0.904567 0
-0.115618 0.806354 0
-0.217444 1.02805 0
-0.0975921 0.904567 0
-0.187175 1.15311 0
-0.0348405 0.622448 0
-0.0975921 0.904567 0
-0.0239751 0.681663 0
-0.0745815 0.99054 0
-0.0975921 0.904567 0
-0.187175 1.15311 0
-0.0745815 0.99054 0
-0.148086 1.26258 0
-0.247633 0.750394 0
-0.388268 0.884905 0
-0.237823 0.892104 0
-0.374578 1.05173 0
-0.388268 0.884905 0
-0.550653 0.987003 0
-0.374578 1.05173 0
-0.532721 1.17268 0
-0.237823 0.892104 0
-0.374578 1.05173 0
-0.217444 1.02805 0
-0.344734 1.21175 0
-0.374578 1.05173 0
-0.532721 1.17268 0
-0.344734 1.21175 0
-0.492247 1.35076 0
-0.550653 0.987003 0
-0.728272 1.05305 0
-0.532721 1.17268 0
-0.705871 1.25063 0
-0.728272 1.05305 0
-0.91404 1.08078 0
-0.705871 1.25063 0
-0.887092 1.28287 0
-0.532721 1.17268 0
-0.705871 1.25063 0
-0.492247 1.35076 0
-0.653985 1.44008 0
-0.705871 1.25063 0
-0.887092 1.28287 0
-0.653985 1.44008 0
-0.823429 1.47659 0
-0.217444 1.02805 0
-0.344734 1.21175 0
-0.187175 1.15311 0
-0.299754 1.35894 0
-0.344734 1.21175 0
-0.492247 1.35076 0
-0.299754 1.35894 0
-0.430633 1.51454 0
-0.187175 1.15311 0
-0.299754 1.35894 0
-0.148086 1.26258 0
-0.241254 1.48778 0
-0.299754 1.35894 0
-0.430633 1.51454 0
-0.241254 1.48778 0
-0.350114 1.65789 0
-0.492247 1.35076 0
-0.653985 1.44008 0
-0.430633 1.51454 0
-0.574432 1.6143 0
-0.653985 1.44008 0
-0.823429 1.47659 0
-0.574432 1.6143 0
-0.7253 1.65471 0
-0.430633 1.51454 0
-0.574432 1.6143 0
-0.350114 1.65789 0
-0.470117 1.76676 0
-0.574432 1.6143 0
-0.7253 1.65471 0
-0.470117 1.76676 0
-0.596307 1.81056 0
0 0 0
0.00135904 0.347363 0
0 0 0
0.00484442 0.372124 0
0.00135904 0.347363 0
-0.0239751 0.681663 0
0.00484442 0.372124 0
-0.0113203 0.730215 0
0 0 0
0.00484442 0.372124 0
0 0 0
0.00859503 0.390511 0
0.00484442 0.372124 0
-0.0113203 0.730215 0
0.00859503 0.390511 0
0.00266773 0.76627 0
-0.0239751 0.681663 0
-0.0745815 0.99054 0
-0.0113203 0.730215 0
-0.0474137 1.06103 0
-0.0745815 0.99054 0
-0.148086 1.26258 0
-0.0474137 1.06103 0
-0.101605 1.35234 0
-0.0113203 0.730215 0
-0.0474137 1.06103 0
0.00266773 0.76627 0
-0.0170876 1.11337 0
-0.0474137 1.06103 0
-0.101605 1.35234 0
-0.0170876 1.11337 0
-0.0494593 1.41898 0
0 0 0
0.00859503 0.390511 0
0 0 0
0.0124777 0.401829 0
0.00859503 0.390511 0
0.00266773 0.76627 0
0.0124777 0.401829 0
0.0174734 0.788464 0
0 0 0
0.0124777 0.401829 0
0 0 0
0.0163497 0.405651 0
0.0124777 0.401829 0
0.0174734 0.788464 0
0.0163497 0.405651 0
0.0325406 0.795958 0
0.00266773 0.76627 0
-0.0170876 1.11337 0
0.0174734 0.788464 0
0.015264 1.14559 0
-0.0170876 1.11337 0
-0.0494593 1.41898 0
0.015264 1.14559 0
0.00639164 1.46001 0
0.0174734 0.788464 0
0.015264 1.14559 0
0.0325406 0.795958 0
0.0484171 1.15647 0
0.015264 1.14559 0
0.00639164 1.46001 0
0.0484171 1.15647 0
0.0638268 1.47386 0
-0.148086 1.26258 0
-0.241254 1.48778 0
-0.101605 1.35234 0
-0.171388 1.59341 0
-0.241254 1.48778 0
-0.350114 1.65789 0
-0.171388 1.59341 0
-0.253675 1.7754 0
-0.101605 1.35234 0
-0.171388 1.59341 0
-0.0494593 1.41898 0
-0.0927676 1.67183 0
-0.171388 1.59341 0
-0.253675 1.7754 0
-0.0927676 1.67183 0
-0.144932 1.86265 0
-0.350114 1.65789 0
-0.470117 1.76676 0
-0.253675 1.7754 0
-0.344921 1.89173 0
-0.470117 1.76676 0
-0.596307 1.81056 0
-0.344921 1.89173 0
-0.441264 1.93829 0
-0.253675 1.7754 0
-0.344921 1.89173 0
-0.144932 1.86265 0
-0.203555 1.98451 0
-0.344921 1.89173 0
-0.441264 1.93829 0
-0.203555 1.98451 0
-0.266016 2.03312 0
-0.0494593 1.41898 0
-0.0927676 1.67183 0
0.00639164 1.46001 0
-0.00836066 1.72011 0
-0.0927676 1.67183 0
-0.144932 1.86265 0
-0.00836066 1.72011 0
-0.0280028 1.91635 0
0.00639164 1.46001 0
-0.00836066 1.72011 0
0.0638268 1.47386 0
0.0786213 1.73641 0
-0.00836066 1.72011 0
-0.0280028 1.91635 0
0.0786213 1.73641 0
0.0926583 1.93448 0
-0.144932 1.86265 0
-0.203555 1.98451 0
-0.0280028 1.91635 0
-0.0513793 2.04162 0
-0.203555 1.98451 0
-0.266016 2.03312 0
-0.0513793 2.04162 0
-0.0772169 2.09148 0
-0.0280028 1.91635 0
-0.0513793 2.04162 0
0.0926583 1.93448 0
0.105803 2.0609 0
-0.0513793 2.04162 0
-0.0772169 2.09148 0
0.105803 2.0609 0
0.117928 2.11118 0
-0.91404 1.08078 0
-1.10058 1.06938 0
-0.887092 1.28287 0
-1.06916 1.26844 0
-1.10058 1.06938 0
-1.28051 1.01951 0
-1.06916 1.26844 0
-1.24484 1.20814 0
-0.887092 1.28287 0
-1.06916 1.26844 0
-0.823429 1.47659 0
-0.993785 1.4592 0
-1.06916 1.26844 0
-1.24484 1.20814 0
-0.993785 1.4592 0
-1.15825 1.38882 0
-1.28051 1.01951 0
-1.44672 0.933281 0
-1.24484 1.20814 0
-1.40717 1.10451 0
-1.44672 0.933281 0
-1.59266 0.814187 0
-1.40717 1.10451 0
-1.54974 0.961709 0
-1.24484 1.20814 0
-1.40717 1.10451 0
-1.15825 1.38882 0
-1.31028 1.26841 0
-1.40717 1.10451 0
-1.54974 0.961709 0
-1.31028 1.26841 0
-1.44384 1.10279 0
-0.823429 1.47659 0
-0.993785 1.4592 0
-0.7253 1.65471 0
-0.87714 1.63454 0
-0.993785 1.4592 0
-1.15825 1.38882 0
-0.87714 1.63454 0
-1.02385 1.55485 0
-0.7253 1.65471 0
-0.87714 1.63454 0
-0.596307 1.81056 0
-0.72352 1.78793 0
-0.87714 1.63454 0
-1.02385 1.55485 0
-0.72352 1.78793 0
-0.846582 1.70005 0
-1.15825 1.38882 0
-1.31028 1.26841 0
-1.02385 1.55485 0
-1.15954 1.41895 0
-1.31028 1.26841 0
-1.44384 1.10279 0
-1.15954 1.41895 0
-1.2788 1.23226 0
-1.02385 1.55485 0
-1.15954 1.41895 0
-0.846582 1.70005 0
-0.960512 1.55055 0
-1.15954 1.41895 0
-1.2788 1.23226 0
-0.960512 1.55055 0
-1.06071 1.3454 0
-1.59266 0.814187 0
-1.71259 0.666946 0
-1.54974 0.961709 0
-1.66691 0.785389 0
-1.71259 0.666946 0
-1.80179 0.497328 0
-1.66691 0.785389 0
-1.75406 0.582446 0
-1.54974 0.961709 0
-1.66691 0.785389 0
-1.44384 1.10279 0
-1.55364 0.898483 0
-1.66691 0.785389 0
-1.75406 0.582446 0
-1.55364 0.898483 0
-1.63532 0.66348 0
-1.80179 0.497328 0
-1.85674 0.311931 0
-1.75406 0.582446 0
-1.80777 0.360766 0
-1.85674 0.311931 0
-1.8753 0.117928 0
-1.80777 0.360766 0
-1.8259 0.128918 0
-1.75406 0.582446 0
-1.80777 0.360766 0
-1.63532 0.66348 0
-1.68565 0.406903 0
-1.80777 0.360766 0
-1.8259 0.128918 0
-1.68565 0.406903 0
-1.70265 0.138667 0
-1.44384 1.10279 0
-1.55364 0.898483 0
-1.2788 1.23226 0
-1.37686 1.00215 0
-1.55364 0.898483 0
-1.63532 0.66348 0
-1.37686 1.00215 0
-1.44984 0.737594 0
-1.2788 1.23226 0
-1.37686 1.00215 0
-1.06071 1.3454 0
-1.14315 1.09265 0
-1.37686 1.00215 0
-1.44984 0.737594 0
-1.14315 1.09265 0
-1.20451 0.802181 0
-1.63532 0.66348 0
-1.68565 0.406903 0
-1.44984 0.737594 0
-1.49481 0.448852 0
-1.68565 0.406903 0
-1.70265 0.138667 0
-1.49481 0.448852 0
-1.51 0.14708 0
-1.44984 0.737594 0
-1.49481 0.448852 0
-1.20451 0.802181 0
-1.24234 0.485242 0
-1.49481 0.448852 0
-1.51 0.14708 0
-1.24234 0.485242 0
-1.25512 0.154077 0
-0.596307 1.81056 0
-0.72352 1.78793 0
-0.441264 1.93829 0
-0.538672 1.91364 0
-0.72352 1.78793 0
-0.846582 1.70005 0
-0.538672 1.91364 0
-0.633106 1.81902 0
-0.441264 1.93829 0
-0.538672 1.91364 0
-0.266016 2.03312 0
-0.329576 2.00695 0
-0.538672 1.91364 0
-0.633106 1.81902 0
-0.329576 2.00695 0
-0.391487 1.90732 0
-0.846582 1.70005 0
-0.960512 1.55055 0
-0.633106 1.81902 0
-0.720673 1.65835 0
-0.960512 1.55055 0
-1.06071 1.3454 0
-0.720673 1.65835 0
-0.797779 1.43803 0
-0.633106 1.81902 0
-0.720673 1.65835 0
-0.391487 1.90732 0
-0.449096 1.73834 0
-0.720673 1.65835 0
-0.797779 1.43803 0
-0.449096 1.73834 0
-0.499956 1.50674 0
-0.266016 2.03312 0
-0.329576 2.00695 0
-0.0772169 2.09148 0
-0.104177 2.06437 0
-0.329576 2.00695 0
-0.391487 1.90732 0
-0.104177 2.06437 0
-0.130911 1.96166 0
-0.0772169 2.09148 0
-0.104177 2.06437 0
0.117928 2.11118 0
0.128918 2.08376 0
-0.104177 2.06437 0
-0.130911 1.96166 0
0.128918 2.08376 0
0.138667 1.98 0
-0.391487 1.90732 0
-0.449096 1.73834 0
-0.130911 1.96166 0
-0.156114 1.78756 0
-0.449096 1.73834 0
-0.499956 1.50674 0
-0.156114 1.78756 0
-0.178577 1.54901 0
-0.130911 1.96166 0
-0.156114 1.78756 0
0.138667 1.98 0
0.14708 1.80418 0
-0.156114 1.78756 0
-0.178577 1.54901 0
0.14708 1.80418 0
0.154077 1.56328 0
-1.06071 1.3454 0
-1.14315 1.09265 0
-0.797779 1.43803 0
-0.861274 1.1667 0
-1.14315 1.09265 0
-1.20451 0.802181 0
-0.861274 1.1667 0
-0.908567 0.854959 0
-0.797779 1.43803 0
-0.861274 1.1667 0
-0.499956 1.50674 0
-0.541918 1.22161 0
-0.861274 1.1667 0
-0.908567 0.854959 0
-0.541918 1.22161 0
-0.573214 0.894057 0
-1.20451 0.802181 0
-1.24234 0.485242 0
-0.908567 0.854959 0
-0.937733 0.514878 0
-1.24234 0.485242 0
-1.25512 0.154077 0
-0.937733 0.514878 0
-0.947588 0.15959 0
-0.908567 0.854959 0
-0.937733 0.514878 0
-0.573214 0.894057 0
-0.592532 0.536779 0
-0.937733 0.514878 0
-0.947588 0.15959 0
-0.592532 0.536779 0
-0.599061 0.163566 0
-0.499956 1.50674 0
-0.541918 1.22161 0
-0.178577 1.54901 0
-0.197239 1.25538 0
-0.541918 1.22161 0
-0.573214 0.894057 0
-0.197239 1.25538 0
-0.211224 0.918087 0
-0.178577 1.54901 0
-0.197239 1.25538 0
0.154077 1.56328 0
0.15959 1.26677 0
-0.197239 1.25538 0
-0.211224 0.918087 0
0.15959 1.26677 0
0.163566 0.926195 0
-0.573214 0.894057 0
-0.592532 0.536779 0
-0.211224 0.918087 0
-0.219883 0.550218 0
-0.592532 0.536779 0
-0.599061 0.163566 0