# vtk DataFile Version 3.0
#This file was generated by the deal.II library on 2015/11/7 at 15:38: 8
ASCII
DATASET UNSTRUCTURED_GRID

POINTS 256 double
0 0 0
0.125 0 0
0 0.125 0
0.125 0.125 0
0.125 0 0
0.25 0 0
0.125 0.125 0
0.25 0.125 0
0 0.125 0
0.125 0.125 0
0 0.25 0
0.125 0.25 0
0.125 0.125 0
0.25 0.125 0
0.125 0.25 0
0.25 0.25 0
0.25 0 0
0.375 0 0
0.25 0.125 0
0.375 0.125 0
0.375 0 0
0.5 0 0
0.375 0.125 0
0.5 0.125 0
0.25 0.125 0
0.375 0.125 0
0.25 0.25 0
0.375 0.25 0
0.375 0.125 0
0.5 0.125 0
0.375 0.25 0
0.5 0.25 0
0 0.25 0
0.125 0.25 0
0 0.375 0
0.125 0.375 0
0.125 0.25 0
0.25 0.25 0
0.125 0.375 0
0.25 0.375 0
0 0.375 0
0.125 0.375 0
0 0.5 0
0.125 0.5 0
0.125 0.375 0
0.25 0.375 0
0.125 0.5 0
0.25 0.5 0
0.25 0.25 0
0.375 0.25 0
0.25 0.375 0
0.375 0.375 0
0.375 0.25 0
0.5 0.25 0
0.375 0.375 0
0.5 0.375 0
0.25 0.375 0
0.375 0.375 0
0.25 0.5 0
0.375 0.5 0
0.375 0.375 0
0.5 0.375 0
0.375 0.5 0
0.5 0.5 0
0.5 0 0
0.625 0 0
0.5 0.125 0
0.625 0.125 0
0.625 0 0
0.75 0 0
0.625 0.125 0
0.75 0.125 0
0.5 0.125 0
0.625 0.125 0
0.5 0.25 0
0.625 0.25 0
0.625 0.125 0
0.75 0.125 0
0.625 0.25 0
0.75 0.25 0
0.75 0 0
0.875 0 0
0.75 0.125 0
0.875 0.125 0
0.875 0 0
1 0 0
0.875 0.125 0
1 0.125 0
0.75 0.125 0
0.875 0.125 0
0.75 0.25 0
0.875 0.25 0
0.875 0.125 0
1 0.125 0
0.875 0.25 0
1 0.25 0
0.5 0.25 0
0.625 0.25 0
0.5 0.375 0
0.625 0.375 0
0.625 0.25 0
0.75 0.25 0
0.625 0.375 0
0.75 0.375 0
0.5 0.375 0
0.625 0.375 0
0.5 0.5 0
0.625 0.5 0
0.625 0.375 0
0.75 0.375 0
0.625 0.5 0
0.75 0.5 0
0.75 0.25 0
0.875 0.25 0
0.75 0.375 0
0.875 0.375 0
0.875 0.25 0
1 0.25 0
0.875 0.375 0
1 0.375 0
0.75 0.375 0
0.875 0.375 0
0.75 0.5 0
0.875 0.5 0
0.875 0.375 0
1 0.375 0
0.875 0.5 0
1 0.5 0
0 0.5 0
0.125 0.5 0
0 0.625 0
0.125 0.625 0
0.125 0.5 0
0.25 0.5 0
0.125 0.625 0
0.25 0.625 0
0 0.625 0
0.125 0.625 0
0 0.75 0
0.125 0.75 0
0.125 0.625 0
0.25 0.625 0
0.125 0.75 0
0.25 0.75 0
0.25 0.5 0
0.375 0.5 0
0.25 0.625 0
0.375 0.625 0
0.375 0.5 0
0.5 0.5 0
0.375 0.625 0
0.5 0.625 0
0.25 0.625 0
0.375 0.625 0
0.25 0.75 0
0.375 0.75 0
0.375 0.625 0
0.5 0.625 0
0.375 0.75 0
0.5 0.75 0
0 0.75 0
0.125 0.75 0
0 0.875 0
0.125 0.875 0
0.125 0.75 0
0.25 0.75 0
0.125 0.875 0
0.25 0.875 0
0 0.875 0
0.125 0.875 0
0 1 0
0.125 1 0
0.125 0.875 0
0.25 0.875 0
0.125 1 0
0.25 1 0
0.25 0.75 0
0.375 0.75 0
0.25 0.875 0
0.375 0.875 0
0.375 0.75 0
0.5 0.75 0
0.375 0.875 0
0.5 0.875 0
0.25 0.875 0
0.375 0.875 0
0.25 1 0
0.375 1 0
0.375 0.875 0
0.5 0.875 0
0.375 1 0
0.5 1 0
0.5 0.5 0
0.625 0.5 0
0.5 0.625 0
0.625 0.625 0
0.625 0.5 0
0.75 0.5 0
0.625 0.625 0
0.75 0.625 0
0.5 0.625 0
0.625 0.625 0
0.5 0.75 0
0.625 0.75 0
0.625 0.625 0
0.75 0.625 0
0.625 0.75 0
0.75 0.75 0
0.75 0.5 0
0.875 0.5 0
0.75 0.625 0
0.875 0.625 0
0.875 0.5 0
1 0.5 0
0.875 0.625 0
1 0.625 0
0.75 0.625 0
0.875 0.625 0
0.75 0.75 0
0.875 0.75 0
0.875 0.625 0
1 0.625 0
0.875 0.75 0
1 0.75 0
0.5 0.75 0
0.625 0.75 0
0.5 0.875 0
0.625 0.875 0
0.625 0.75 0
0.75 0.75 0
0.625 0.875 0
0.75 0.875 0
0.5 0.875 0
0.625 0.875 0
0.5 1 0
0.625 1 0
0.625 0.875 0
0.75 0.875 0
0.625 1 0
0.75 1 0
0.75 0.75 0
0.875 0.75 0
0.75 0.875 0
0.875 0.875 0
0.875 0.75 0
1 0.75 0
0.875 0.875 0
1 0.875 0
0.75 0.875 0
0.875 0.875 0
0.75 1 0
0.875 1 0
0.875 0.875 0
1 0.875 0
0.875 1 0
1 1 0

CELLS 64 320
4	0	1	3	2
4	4	5	7	6
4	8	9	11	10
4	12	13	15	14
4	16	17	19	18
4	20	21	23	22
4	24	25	27	26
4	28	29	31	30
4	32	33	35	34
4	36	37	39	38
4	40	41	43	42
4	44	45	47	46
4	48	49	51	50
4	52	53	55	54
4	56	57	59	58
4	60	61	63	62
4	64	65	67	66
4	68	69	71	70
4	72	73	75	74
4	76	77	79	78
4	80	81	83	82
4	84	85	87	86
4	88	89	91	90
4	92	93	95	94
4	96	97	99	98
4	100	101	103	102
4	104	105	107	106
4	108	109	111	110
4	112	113	115	114
4	116	117	119	118
4	120	121	123	122
4	124	125	127	126
4	128	129	131	130
4	132	133	135	134
4	136	137	139	138
4	140	141	143	142
4	144	145	147	146
4	148	149	151	150
4	152	153	155	154
4	156	157	159	158
4	160	161	163	162
4	164	165	167	166
4	168	169	171	170
4	172	173	175	174
4	176	177	179	178
4	180	181	183	182
4	184	185	187	186
4	188	189	191	190
4	192	193	195	194
4	196	197	199	198
4	200	201	203	202
4	204	205	207	206
4	208	209	211	210
4	212	213	215	214
4	216	217	219	218
4	220	221	223	222
4	224	225	227	226
4	228	229	231	230
4	232	233	235	234
4	236	237	239	238
4	240	241	243	242
4	244	245	247	246
4	248	249	251	250
4	252	253	255	254

CELL_TYPES 64
 9 9 9 9 9 9 9 9 9 9 9 9 9 9 9 9 9 9 9 9 9 9 9 9 9 9 9 9 9 9 9 9 9 9 9 9 9 9 9 9 9 9 9 9 9 9 9 9 9 9 9 9 9 9 9 9 9 9 9 9 9 9 9 9
POINT_DATA 256
VECTORS U double
0.0 0.0 0.0
0.0 0.0 0.0
0.0 0.0 0.0
0.0291377811865 0.0195872188135 0.0
0.0 0.0 0.0
0.0 0.0 0.0
0.0291377811865 0.0195872188135 0.0
0.0733057811865 0.0421007811865 0.0
0.0 0.0 0.0
0.0291377811865 0.0195872188135 0.0
0.0 0.0 0.0
0.0486532188135 0.0173982188135 0.0
0.0291377811865 0.0195872188135 0.0
0.0733057811865 0.0421007811865 0.0
0.0486532188135 0.0173982188135 0.0
0.123798 0.04414 0.0
0.0 0.0 0.0
0.0 0.0 0.0
0.0733057811865 0.0421007811865 0.0
0.112586781187 0.0575412188135 0.0
0.0 0.0 0.0
0.0 0.0 0.0
0.112586781187 0.0575412188135 0.0
0.128493562373 0.0645484 0.0
0.0733057811865 0.0421007811865 0.0
0.112586781187 0.0575412188135 0.0
0.123798 0.04414 0.0
0.193126781187 0.0811902188135 0.0
0.112586781187 0.0575412188135 0.0
0.128493562373 0.0645484 0.0
0.193126781187 0.0811902188135 0.0
0.22126 0.119133 0.0
0.0 0.0 0.0
0.0486532188135 0.0173982188135 0.0
0.0 0.0 0.0
0.0614237811865 0.00656321881345 0.0
0.0486532188135 0.0173982188135 0.0
0.123798 0.04414 0.0
0.0614237811865 0.00656321881345 0.0
0.138573781187 0.0268032188135 0.0
0.0 0.0 0.0
0.0614237811865 0.00656321881345 0.0
0.0 0.0 0.0
0.0645484 0.00108643762691 0.0
0.0614237811865 0.00656321881345 0.0
0.138573781187 0.0268032188135 0.0
0.0645484 0.00108643762691 0.0
0.119133 0.01736 0.0
0.123798 0.04414 0.0
0.193126781187 0.0811902188135 0.0
0.138573781187 0.0268032188135 0.0
0.204866781187 0.0824232188135 0.0
0.193126781187 0.0811902188135 0.0
0.22126 0.119133 0.0
0.204866781187 0.0824232188135 0.0
0.231093562373 0.155578 0.0
0.138573781187 0.0268032188135 0.0
0.204866781187 0.0824232188135 0.0
0.119133 0.01736 0.0
0.155578 0.0801764376269 0.0
0.204866781187 0.0824232188135 0.0
0.231093562373 0.155578 0.0
0.155578 0.0801764376269 0.0
0.168374 0.168374 0.0
0.0 0.0 0.0
0.0 0.0 0.0
0.128493562373 0.0645484 0.0
0.113116781187 0.0617437811865 0.0
0.0 0.0 0.0
0.0 0.0 0.0
0.113116781187 0.0617437811865 0.0
0.0741197811865 0.0492242188135 0.0
0.128493562373 0.0645484 0.0
0.113116781187 0.0617437811865 0.0
0.22126 0.119133 0.0
0.193646781187 0.139013781187 0.0
0.113116781187 0.0617437811865 0.0
0.0741197811865 0.0492242188135 0.0
0.193646781187 0.139013781187 0.0
0.124581 0.124581 0.0
0.0 0.0 0.0
0.0 0.0 0.0
0.0741197811865 0.0492242188135 0.0
0.0298047811865 0.0298047811865 0.0
0.0 0.0 0.0
0.0 0.0 0.0
0.0298047811865 0.0298047811865 0.0
0.0 7.17381485824e-17 0.0
0.0741197811865 0.0492242188135 0.0
0.0298047811865 0.0298047811865 0.0
0.124581 0.124581 0.0
0.0492242188135 0.0741197811865 0.0
0.0298047811865 0.0298047811865 0.0
0.0 7.17381485824e-17 0.0
0.0492242188135 0.0741197811865 0.0
0.0 2.44929359829e-16 0.0
0.22126 0.119133 0.0
0.193646781187 0.139013781187 0.0
0.231093562373 0.155578 0.0
0.205176781187 0.205176781187 0.0
0.193646781187 0.139013781187 0.0
0.124581 0.124581 0.0
0.205176781187 0.205176781187 0.0
0.139013781187 0.193646781187 0.0
0.231093562373 0.155578 0.0
0.205176781187 0.205176781187 0.0
0.168374 0.168374 0.0
0.155578 0.231093562373 0.0
0.205176781187 0.205176781187 0.0
0.139013781187 0.193646781187 0.0
0.155578 0.231093562373 0.0
0.119133 0.22126 0.0
0.124581 0.124581 0.0
0.0492242188135 0.0741197811865 0.0
0.139013781187 0.193646781187 0.0
0.0617437811865 0.113116781187 0.0
0.0492242188135 0.0741197811865 0.0
0.0 2.44929359829e-16 0.0
0.0617437811865 0.113116781187 0.0
0.0 4.18120571077e-16 0.0
0.139013781187 0.193646781187 0.0
0.0617437811865 0.113116781187 0.0
0.119133 0.22126 0.0
0.0645484 0.128493562373 0.0
0.0617437811865 0.113116781187 0.0
0.0 4.18120571077e-16 0.0
0.0645484 0.128493562373 0.0
0.0 4.89858719659e-16 0.0
0.0 0.0 0.0
0.0645484 0.00108643762691 0.0
0.0 0.0 0.0
0.0578612188135 0.00709321881345 0.0
0.0645484 0.00108643762691 0.0
0.119133 0.01736 0.0
0.0578612188135 0.00709321881345 0.0
0.0816292188135 0.0273332188135 0.0
0.0 0.0 0.0
0.0578612188135 0.00709321881345 0.0
0.0 0.0 0.0
0.0426727811865 0.0182122188135 0.0
0.0578612188135 0.00709321881345 0.0
0.0816292188135 0.0273332188135 0.0
0.0426727811865 0.0182122188135 0.0
0.04492 0.04492 0.0
0.119133 0.01736 0.0
0.155578 0.0801764376269 0.0
0.0816292188135 0.0273332188135 0.0
0.0827332188135 0.0827332188135 0.0
0.155578 0.0801764376269 0.0
0.168374 0.168374 0.0
0.0827332188135 0.0827332188135 0.0
0.0801764376269 0.155578 0.0
0.0816292188135 0.0273332188135 0.0
0.0827332188135 0.0827332188135 0.0
0.04492 0.04492 0.0
0.0273332188135 0.0816292188135 0.0
0.0827332188135 0.0827332188135 0.0
0.0801764376269 0.155578 0.0
0.0273332188135 0.0816292188135 0.0
0.01736 0.119133 0.0
0.0 0.0 0.0
0.0426727811865 0.0182122188135 0.0
0.0 0.0 0.0
0.0202532188135 0.0202532188135 0.0
0.0426727811865 0.0182122188135 0.0
0.04492 0.04492 0.0
0.0202532188135 0.0202532188135 0.0
0.0182122188135 0.0426727811865 0.0
0.0 0.0 0.0
0.0202532188135 0.0202532188135 0.0
0.0 0.0 0.0
7.17381485824e-17 0.0 0.0
0.0202532188135 0.0202532188135 0.0
0.0182122188135 0.0426727811865 0.0
7.17381485824e-17 0.0 0.0
2.44929359829e-16 0.0 0.0
0.04492 0.04492 0.0
0.0273332188135 0.0816292188135 0.0
0.0182122188135 0.0426727811865 0.0
0.00709321881345 0.0578612188135 0.0
0.0273332188135 0.0816292188135 0.0
0.01736 0.119133 0.0
0.00709321881345 0.0578612188135 0.0
0.0010864376269 0.0645484 0.0
0.0182122188135 0.0426727811865 0.0
0.00709321881345 0.0578612188135 0.0
2.44929359829e-16 0.0 0.0
4.18120571077e-16 0.0 0.0
0.00709321881345 0.0578612188135 0.0
0.0010864376269 0.0645484 0.0
4.18120571077e-16 0.0 0.0
4.89858719659e-16 0.0 0.0
0.168374 0.168374 0.0
0.155578 0.231093562373 0.0
0.0801764376269 0.155578 0.0
0.0824232188135 0.204866781187 0.0
0.155578 0.231093562373 0.0
0.119133 0.22126 0.0
0.0824232188135 0.204866781187 0.0
0.0811902188135 0.193126781187 0.0
0.0801764376269 0.155578 0.0
0.0824232188135 0.204866781187 0.0
0.01736 0.119133 0.0
0.0268032188135 0.138573781187 0.0
0.0824232188135 0.204866781187 0.0
0.0811902188135 0.193126781187 0.0
0.0268032188135 0.138573781187 0.0
0.04414 0.123798 0.0
0.119133 0.22126 0.0
0.0645484 0.128493562373 0.0
0.0811902188135 0.193126781187 0.0
0.0575412188135 0.112586781187 0.0
0.0645484 0.128493562373 0.0
0.0 4.89858719659e-16 0.0
0.0575412188135 0.112586781187 0.0
0.0 4.18120571077e-16 0.0
0.0811902188135 0.193126781187 0.0
0.0575412188135 0.112586781187 0.0
0.04414 0.123798 0.0
0.0421007811865 0.0733057811865 0.0
0.0575412188135 0.112586781187 0.0
0.0 4.18120571077e-16 0.0
0.0421007811865 0.0733057811865 0.0
0.0 2.44929359829e-16 0.0
0.01736 0.119133 0.0
0.0268032188135 0.138573781187 0.0
0.0010864376269 0.0645484 0.0
0.00656321881345 0.0614237811865 0.0
0.0268032188135 0.138573781187 0.0
0.04414 0.123798 0.0
0.00656321881345 0.0614237811865 0.0
0.0173982188135 0.0486532188135 0.0
0.0010864376269 0.0645484 0.0
0.00656321881345 0.0614237811865 0.0
4.89858719659e-16 0.0 0.0
4.18120571077e-16 0.0 0.0
0.00656321881345 0.0614237811865 0.0
0.0173982188135 0.0486532188135 0.0
4.18120571077e-16 0.0 0.0
2.44929359829e-16 0.0 0.0
0.04414 0.123798 0.0
0.0421007811865 0.0733057811865 0.0
0.0173982188135 0.0486532188135 0.0
0.0195872188135 0.0291377811865 0.0
0.0421007811865 0.0733057811865 0.0
0.0 2.44929359829e-16 0.0
0.0195872188135 0.0291377811865 0.0
0.0 7.17381485824e-17 0.0
0.0173982188135 0.0486532188135 0.0
0.0195872188135 0.0291377811865 0.0
2.44929359829e-16 0.0 0.0
7.17381485824e-17 0.0 0.0
0.0195872188135 0.0291377811865 0.0
0.0 7.17381485824e-17 0.0
7.17381485824e-17 0.0 0.0
0.0 0.0 0.0
