# vtk DataFile Version 3.0
#This file was generated by the deal.II library on 2015/11/7 at 15:38: 8
ASCII
DATASET UNSTRUCTURED_GRID

POINTS 256 double
0 0 0
0.125 0 0
0 0.125 0
0.125 0.125 0
0.125 0 0
0.25 0 0
0.125 0.125 0
0.25 0.125 0
0 0.125 0
0.125 0.125 0
0 0.25 0
0.125 0.25 0
0.125 0.125 0
0.25 0.125 0
0.125 0.25 0
0.25 0.25 0
0.25 0 0
0.375 0 0
0.25 0.125 0
0.375 0.125 0
0.375 0 0
0.5 0 0
0.375 0.125 0
0.5 0.125 0
0.25 0.125 0
0.375 0.125 0
0.25 0.25 0
0.375 0.25 0
0.375 0.125 0
0.5 0.125 0
0.375 0.25 0
0.5 0.25 0
0 0.25 0
0.125 0.25 0
0 0.375 0
0.125 0.375 0
0.125 0.25 0
0.25 0.25 0
0.125 0.375 0
0.25 0.375 0
0 0.375 0
0.125 0.375 0
0 0.5 0
0.125 0.5 0
0.125 0.375 0
0.25 0.375 0
0.125 0.5 0
0.25 0.5 0
0.25 0.25 0
0.375 0.25 0
0.25 0.375 0
0.375 0.375 0
0.375 0.25 0
0.5 0.25 0
0.375 0.375 0
0.5 0.375 0
0.25 0.375 0
0.375 0.375 0
0.25 0.5 0
0.375 0.5 0
0.375 0.375 0
0.5 0.375 0
0.375 0.5 0
0.5 0.5 0
0.5 0 0
0.625 0 0
0.5 0.125 0
0.625 0.125 0
0.625 0 0
0.75 0 0
0.625 0.125 0
0.75 0.125 0
0.5 0.125 0
0.625 0.125 0
0.5 0.25 0
0.625 0.25 0
0.625 0.125 0
0.75 0.125 0
0.625 0.25 0
0.75 0.25 0
0.75 0 0
0.875 0 0
0.75 0.125 0
0.875 0.125 0
0.875 0 0
1 0 0
0.875 0.125 0
1 0.125 0
0.75 0.125 0
0.875 0.125 0
0.75 0.25 0
0.875 0.25 0
0.875 0.125 0
1 0.125 0
0.875 0.25 0
1 0.25 0
0.5 0.25 0
0.625 0.25 0
0.5 0.375 0
0.625 0.375 0
0.625 0.25 0
0.75 0.25 0
0.625 0.375 0
0.75 0.375 0
0.5 0.375 0
0.625 0.375 0
0.5 0.5 0
0.625 0.5 0
0.625 0.375 0
0.75 0.375 0
0.625 0.5 0
0.75 0.5 0
0.75 0.25 0
0.875 0.25 0
0.75 0.375 0
0.875 0.375 0
0.875 0.25 0
1 0.25 0
0.875 0.375 0
1 0.375 0
0.75 0.375 0
0.875 0.375 0
0.75 0.5 0
0.875 0.5 0
0.875 0.375 0
1 0.375 0
0.875 0.5 0
1 0.5 0
0 0.5 0
0.125 0.5 0
0 0.625 0
0.125 0.625 0
0.125 0.5 0
0.25 0.5 0
0.125 0.625 0
0.25 0.625 0
0 0.625 0
0.125 0.625 0
0 0.75 0
0.125 0.75 0
0.125 0.625 0
0.25 0.625 0
0.125 0.75 0
0.25 0.75 0
0.25 0.5 0
0.375 0.5 0
0.25 0.625 0
0.375 0.625 0
0.375 0.5 0
0.5 0.5 0
0.375 0.625 0
0.5 0.625 0
0.25 0.625 0
0.375 0.625 0
0.25 0.75 0
0.375 0.75 0
0.375 0.625 0
0.5 0.625 0
0.375 0.75 0
0.5 0.75 0
0 0.75 0
0.125 0.75 0
0 0.875 0
0.125 0.875 0
0.125 0.75 0
0.25 0.75 0
0.125 0.875 0
0.25 0.875 0
0 0.875 0
0.125 0.875 0
0 1 0
0.125 1 0
0.125 0.875 0
0.25 0.875 0
0.125 1 0
0.25 1 0
0.25 0.75 0
0.375 0.75 0
0.25 0.875 0
0.375 0.875 0
0.375 0.75 0
0.5 0.75 0
0.375 0.875 0
0.5 0.875 0
0.25 0.875 0
0.375 0.875 0
0.25 1 0
0.375 1 0
0.375 0.875 0
0.5 0.875 0
0.375 1 0
0.5 1 0
0.5 0.5 0
0.625 0.5 0
0.5 0.625 0
0.625 0.625 0
0.625 0.5 0
0.75 0.5 0
0.625 0.625 0
0.75 0.625 0
0.5 0.625 0
0.625 0.625 0
0.5 0.75 0
0.625 0.75 0
0.625 0.625 0
0.75 0.625 0
0.625 0.75 0
0.75 0.75 0
0.75 0.5 0
0.875 0.5 0
0.75 0.625 0
0.875 0.625 0
0.875 0.5 0
1 0.5 0
0.875 0.625 0
1 0.625 0
0.75 0.625 0
0.875 0.625 0
0.75 0.75 0
0.875 0.75 0
0.875 0.625 0
1 0.625 0
0.875 0.75 0
1 0.75 0
0.5 0.75 0
0.625 0.75 0
0.5 0.875 0
0.625 0.875 0
0.625 0.75 0
0.75 0.75 0
0.625 0.875 0
0.75 0.875 0
0.5 0.875 0
0.625 0.875 0
0.5 1 0
0.625 1 0
0.625 0.875 0
0.75 0.875 0
0.625 1 0
0.75 1 0
0.75 0.75 0
0.875 0.75 0
0.75 0.875 0
0.875 0.875 0
0.875 0.75 0
1 0.75 0
0.875 0.875 0
1 0.875 0
0.75 0.875 0
0.875 0.875 0
0.75 1 0
0.875 1 0
0.875 0.875 0
1 0.875 0
0.875 1 0
1 1 0

CELLS 64 320
4	0	1	3	2
4	4	5	7	6
4	8	9	11	10
4	12	13	15	14
4	16	17	19	18
4	20	21	23	22
4	24	25	27	26
4	28	29	31	30
4	32	33	35	34
4	36	37	39	38
4	40	41	43	42
4	44	45	47	46
4	48	49	51	50
4	52	53	55	54
4	56	57	59	58
4	60	61	63	62
4	64	65	67	66
4	68	69	71	70
4	72	73	75	74
4	76	77	79	78
4	80	81	83	82
4	84	85	87	86
4	88	89	91	90
4	92	93	95	94
4	96	97	99	98
4	100	101	103	102
4	104	105	107	106
4	108	109	111	110
4	112	113	115	114
4	116	117	119	118
4	120	121	123	122
4	124	125	127	126
4	128	129	131	130
4	132	133	135	134
4	136	137	139	138
4	140	141	143	142
4	144	145	147	146
4	148	149	151	150
4	152	153	155	154
4	156	157	159	158
4	160	161	163	162
4	164	165	167	166
4	168	169	171	170
4	172	173	175	174
4	176	177	179	178
4	180	181	183	182
4	184	185	187	186
4	188	189	191	190
4	192	193	195	194
4	196	197	199	198
4	200	201	203	202
4	204	205	207	206
4	208	209	211	210
4	212	213	215	214
4	216	217	219	218
4	220	221	223	222
4	224	225	227	226
4	228	229	231	230
4	232	233	235	234
4	236	237	239	238
4	240	241	243	242
4	244	245	247	246
4	248	249	251	250
4	252	253	255	254

CELL_TYPES 64
 9 9 9 9 9 9 9 9 9 9 9 9 9 9 9 9 9 9 9 9 9 9 9 9 9 9 9 9 9 9 9 9 9 9 9 9 9 9 9 9 9 9 9 9 9 9 9 9 9 9 9 9 9 9 9 9 9 9 9 9 9 9 9 9
POINT_DATA 256
VECTORS U double
0 0 0
0 0 0
0 0 0
-0.177969 0.226694 0
0 0 0
0 0 0
-0.177969 0.226694 0
-0.633801 0.334994 0
0 0 0
-0.177969 0.226694 0
0 0 0
-0.24424 0.724505 0
-0.177969 0.226694 0
-0.633801 0.334994 0
-0.24424 0.724505 0
-0.876202 1.04414 0
0 0 0
0 0 0
-0.633801 0.334994 0
-1.09452 0.264648 0
0 0 0
0 0 0
-1.09452 0.264648 0
-1.28572 0.0645484 0
-0.633801 0.334994 0
-1.09452 0.264648 0
-0.876202 1.04414 0
-1.51398 0.788297 0
-1.09452 0.264648 0
-1.28572 0.0645484 0
-1.51398 0.788297 0
-1.77874 0.119133 0
0 0 0
-0.24424 0.724505 0
0 0 0
-0.145683 1.21367 0
-0.24424 0.724505 0
-0.876202 1.04414 0
-0.145683 1.21367 0
-0.568533 1.73391 0
0 0 0
-0.145683 1.21367 0
0 0 0
0.0645484 1.4153 0
-0.145683 1.21367 0
-0.568533 1.73391 0
0.0645484 1.4153 0
0.119133 2.01736 0
-0.876202 1.04414 0
-1.51398 0.788297 0
-0.568533 1.73391 0
-1.00224 1.28953 0
-1.51398 0.788297 0
-1.77874 0.119133 0
-1.00224 1.28953 0
-1.18312 0.155578 0
-0.568533 1.73391 0
-1.00224 1.28953 0
0.119133 2.01736 0
0.155578 1.49439 0
-1.00224 1.28953 0
-1.18312 0.155578 0
0.155578 1.49439 0
0.168374 0.168374 0
0 0 0
0 0 0
-1.28572 0.0645484 0
-1.09399 -0.145363 0
0 0 0
0 0 0
-1.09399 -0.145363 0
-0.632987 -0.243669 0
-1.28572 0.0645484 0
-1.09399 -0.145363 0
-1.77874 0.119133 0
-1.51346 -0.568093 0
-1.09399 -0.145363 0
-0.632987 -0.243669 0
-1.51346 -0.568093 0
-0.875419 -0.875419 0
0 0 0
0 0 0
-0.632987 -0.243669 0
-0.177302 -0.177302 0
0 0 0
0 0 0
-0.177302 -0.177302 0
0 0 0
-0.632987 -0.243669 0
-0.177302 -0.177302 0
-0.875419 -0.875419 0
-0.243669 -0.632987 0
-0.177302 -0.177302 0
0 0 0
-0.243669 -0.632987 0
0 0 0
-1.77874 0.119133 0
-1.51346 -0.568093 0
-1.18312 0.155578 0
-1.00193 -1.00193 0
-1.51346 -0.568093 0
-0.875419 -0.875419 0
-1.00193 -1.00193 0
-0.568093 -1.51346 0
-1.18312 0.155578 0
-1.00193 -1.00193 0
0.168374 0.168374 0
0.155578 -1.18312 0
-1.00193 -1.00193 0
-0.568093 -1.51346 0
0.155578 -1.18312 0
0.119133 -1.77874 0
-0.875419 -0.875419 0
-0.243669 -0.632987 0
-0.568093 -1.51346 0
-0.145363 -1.09399 0
-0.243669 -0.632987 0
0 0 0
-0.145363 -1.09399 0
0 0 0
-0.568093 -1.51346 0
-0.145363 -1.09399 0
0.119133 -1.77874 0
0.0645484 -1.28572 0
-0.145363 -1.09399 0
0 0 0
0.0645484 -1.28572 0
0 0 0
0 0 0
0.0645484 1.4153 0
0 0 0
0.264968 1.2142 0
0.0645484 1.4153 0
0.119133 2.01736 0
0.264968 1.2142 0
0.788736 1.73444 0
0 0 0
0.264968 1.2142 0
0 0 0
0.335566 0.725319 0
0.264968 1.2142 0
0.788736 1.73444 0
0.335566 0.725319 0
1.04492 1.04492 0
0.119133 2.01736 0
0.155578 1.49439 0
0.788736 1.73444 0
1.28984 1.28984 0
0.155578 1.49439 0
0.168374 0.168374 0
1.28984 1.28984 0
1.49439 0.155578 0
0.788736 1.73444 0
1.28984 1.28984 0
1.04492 1.04492 0
1.73444 0.788736 0
1.28984 1.28984 0
1.49439 0.155578 0
1.73444 0.788736 0
2.01736 0.119133 0
0 0 0
0.335566 0.725319 0
0 0 0
0.22736 0.22736 0
0.335566 0.725319 0
1.04492 1.04492 0
0.22736 0.22736 0
0.725319 0.335566 0
0 0 0
0.22736 0.22736 0
0 0 0
0 0 0
0.22736 0.22736 0
0.725319 0.335566 0
0 0 0
0 0 0
1.04492 1.04492 0
1.73444 0.788736 0
0.725319 0.335566 0
1.2142 0.264968 0
1.73444 0.788736 0
2.01736 0.119133 0
1.2142 0.264968 0
1.4153 0.0645484 0
0.725319 0.335566 0
1.2142 0.264968 0
0 0 0
0 0 0
1.2142 0.264968 0
1.4153 0.0645484 0
0 0 0
0 0 0
0.168374 0.168374 0
0.155578 -1.18312 0
1.49439 0.155578 0
1.28953 -1.00224 0
0.155578 -1.18312 0
0.119133 -1.77874 0
1.28953 -1.00224 0
0.788297 -1.51398 0
1.49439 0.155578 0
1.28953 -1.00224 0
2.01736 0.119133 0
1.73391 -0.568533 0
1.28953 -1.00224 0
0.788297 -1.51398 0
1.73391 -0.568533 0
1.04414 -0.876202 0
0.119133 -1.77874 0
0.0645484 -1.28572 0
0.788297 -1.51398 0
0.264648 -1.09452 0
0.0645484 -1.28572 0
0 0 0
0.264648 -1.09452 0
0 0 0
0.788297 -1.51398 0
0.264648 -1.09452 0
1.04414 -0.876202 0
0.334994 -0.633801 0
0.264648 -1.09452 0
0 0 0
0.334994 -0.633801 0
0 0 0
2.01736 0.119133 0
1.73391 -0.568533 0
1.4153 0.0645484 0
1.21367 -0.145683 0
1.73391 -0.568533 0
1.04414 -0.876202 0
1.21367 -0.145683 0
0.724505 -0.24424 0
1.4153 0.0645484 0
1.21367 -0.145683 0
0 0 0
0 0 0
1.21367 -0.145683 0
0.724505 -0.24424 0
0 0 0
0 0 0
1.04414 -0.876202 0
0.334994 -0.633801 0
0.724505 -0.24424 0
0.226694 -0.177969 0
0.334994 -0.633801 0
0 0 0
0.226694 -0.177969 0
0 0 0
0.724505 -0.24424 0
0.226694 -0.177969 0
0 0 0
0 0 0
0.226694 -0.177969 0
0 0 0
0 0 0
0 0 0
SCALARS Ux double 1
LOOKUP_TABLE default
0 0 0 -0.177969 0 0 -0.177969 -0.633801 0 -0.177969 0 -0.24424 -0.177969 -0.633801 -0.24424 -0.876202 0 0 -0.633801 -1.09452 0 0 -1.09452 -1.28572 -0.633801 -1.09452 -0.876202 -1.51398 -1.09452 -1.28572 -1.51398 -1.77874 0 -0.24424 0 -0.145683 -0.24424 -0.876202 -0.145683 -0.568533 0 -0.145683 0 0.0645484 -0.145683 -0.568533 0.0645484 0.119133 -0.876202 -1.51398 -0.568533 -1.00224 -1.51398 -1.77874 -1.00224 -1.18312 -0.568533 -1.00224 0.119133 0.155578 -1.00224 -1.18312 0.155578 0.168374 0 0 -1.28572 -1.09399 0 0 -1.09399 -0.632987 -1.28572 -1.09399 -1.77874 -1.51346 -1.09399 -0.632987 -1.51346 -0.875419 0 0 -0.632987 -0.177302 0 0 -0.177302 0 -0.632987 -0.177302 -0.875419 -0.243669 -0.177302 0 -0.243669 0 -1.77874 -1.51346 -1.18312 -1.00193 -1.51346 -0.875419 -1.00193 -0.568093 -1.18312 -1.00193 0.168374 0.155578 -1.00193 -0.568093 0.155578 0.119133 -0.875419 -0.243669 -0.568093 -0.145363 -0.243669 0 -0.145363 0 -0.568093 -0.145363 0.119133 0.0645484 -0.145363 0 0.0645484 0 0 0.0645484 0 0.264968 0.0645484 0.119133 0.264968 0.788736 0 0.264968 0 0.335566 0.264968 0.788736 0.335566 1.04492 0.119133 0.155578 0.788736 1.28984 0.155578 0.168374 1.28984 1.49439 0.788736 1.28984 1.04492 1.73444 1.28984 1.49439 1.73444 2.01736 0 0.335566 0 0.22736 0.335566 1.04492 0.22736 0.725319 0 0.22736 0 0 0.22736 0.725319 0 0 1.04492 1.73444 0.725319 1.2142 1.73444 2.01736 1.2142 1.4153 0.725319 1.2142 0 0 1.2142 1.4153 0 0 0.168374 0.155578 1.49439 1.28953 0.155578 0.119133 1.28953 0.788297 1.49439 1.28953 2.01736 1.73391 1.28953 0.788297 1.73391 1.04414 0.119133 0.0645484 0.788297 0.264648 0.0645484 0 0.264648 0 0.788297 0.264648 1.04414 0.334994 0.264648 0 0.334994 0 2.01736 1.73391 1.4153 1.21367 1.73391 1.04414 1.21367 0.724505 1.4153 1.21367 0 0 1.21367 0.724505 0 0 1.04414 0.334994 0.724505 0.226694 0.334994 0 0.226694 0 0.724505 0.226694 0 0 0.226694 0 0 0 
SCALARS Uy double 1
LOOKUP_TABLE default
0 0 0 0.226694 0 0 0.226694 0.334994 0 0.226694 0 0.724505 0.226694 0.334994 0.724505 1.04414 0 0 0.334994 0.264648 0 0 0.264648 0.0645484 0.334994 0.264648 1.04414 0.788297 0.264648 0.0645484 0.788297 0.119133 0 0.724505 0 1.21367 0.724505 1.04414 1.21367 1.73391 0 1.21367 0 1.4153 1.21367 1.73391 1.4153 2.01736 1.04414 0.788297 1.73391 1.28953 0.788297 0.119133 1.28953 0.155578 1.73391 1.28953 2.01736 1.49439 1.28953 0.155578 1.49439 0.168374 0 0 0.0645484 -0.145363 0 0 -0.145363 -0.243669 0.0645484 -0.145363 0.119133 -0.568093 -0.145363 -0.243669 -0.568093 -0.875419 0 0 -0.243669 -0.177302 0 0 -0.177302 0 -0.243669 -0.177302 -0.875419 -0.632987 -0.177302 0 -0.632987 0 0.119133 -0.568093 0.155578 -1.00193 -0.568093 -0.875419 -1.00193 -1.51346 0.155578 -1.00193 0.168374 -1.18312 -1.00193 -1.51346 -1.18312 -1.77874 -0.875419 -0.632987 -1.51346 -1.09399 -0.632987 0 -1.09399 0 -1.51346 -1.09399 -1.77874 -1.28572 -1.09399 0 -1.28572 0 0 1.4153 0 1.2142 1.4153 2.01736 1.2142 1.73444 0 1.2142 0 0.725319 1.2142 1.73444 0.725319 1.04492 2.01736 1.49439 1.73444 1.28984 1.49439 0.168374 1.28984 0.155578 1.73444 1.28984 1.04492 0.788736 1.28984 0.155578 0.788736 0.119133 0 0.725319 0 0.22736 0.725319 1.04492 0.22736 0.335566 0 0.22736 0 0 0.22736 0.335566 0 0 1.04492 0.788736 0.335566 0.264968 0.788736 0.119133 0.264968 0.0645484 0.335566 0.264968 0 0 0.264968 0.0645484 0 0 0.168374 -1.18312 0.155578 -1.00224 -1.18312 -1.77874 -1.00224 -1.51398 0.155578 -1.00224 0.119133 -0.568533 -1.00224 -1.51398 -0.568533 -0.876202 -1.77874 -1.28572 -1.51398 -1.09452 -1.28572 0 -1.09452 0 -1.51398 -1.09452 -0.876202 -0.633801 -1.09452 0 -0.633801 0 0.119133 -0.568533 0.0645484 -0.145683 -0.568533 -0.876202 -0.145683 -0.24424 0.0645484 -0.145683 0 0 -0.145683 -0.24424 0 0 -0.876202 -0.633801 -0.24424 -0.177969 -0.633801 0 -0.177969 0 -0.24424 -0.177969 0 0 -0.177969 0 0 0 
SCALARS Stress double 1
LOOKUP_TABLE default
0 15.7302 12.5132 5.67488 15.7302 24.1433 17.3836 13.5161 12.5132 23.0899 18.7004 20.5481 11.1693 21.7186 15.9537 16.0758 24.1433 22.0237 14.7425 20.4493 22.0237 15.2094 16.3091 19.1016 21.7276 13.1525 16.9547 17.0604 24.9764 12.4593 23.2402 19.7355 18.7004 20.7844 17.0017 28.5597 16.6502 17.0112 13.2569 23.9687 17.0017 17.0112 16.617 25.8281 18.5401 18.4431 19.741 27.3162 15.4398 16.1355 21.5895 11.5536 18.3294 15.8904 24.1249 11.8016 13.3204 18.9387 21.9737 17.9866 4.66536 11.8766 15.0542 1.76097 15.2094 15.9143 24.3115 15.5587 15.9143 18.2341 26.2317 18.6992 18.5804 18.5718 25.602 18.2096 11.8756 17.3797 20.6217 15.6604 18.2341 12.3655 17.6305 20.2477 12.3655 0 4.01189 12.3655 17.2677 10.311 14.2949 17.2677 20.2477 12.3655 17.6305 18.2341 20.6712 14.051 16.1663 19.8992 18.5616 14.4371 9.81669 18.5616 13.4849 4.0998 0.289535 13.4849 19.8992 14.051 16.1663 20.6712 15.6604 17.3797 20.6217 11.8756 18.6992 18.2341 26.2317 15.9143 18.2096 18.5718 25.602 18.5804 15.5587 15.9143 24.3115 15.2094 16.617 20.7146 22.8301 17.3997 13.7735 21.4904 24.7691 23.0607 22.8301 22.6951 24.5078 16.6255 13.474 19.8035 20.6702 17.1676 17.1976 13.6192 17.45 23.0185 13.4235 0.289535 4.62847 13.4235 18.697 11.3386 15.602 18.697 23.0185 13.6192 17.45 17.1976 24.5078 16.0995 15.8567 20.1636 19.9555 16.0509 11.2675 19.9555 15.8567 5.14458 0 15.8567 20.1636 16.0995 15.8567 24.5078 17.1676 19.8035 20.6702 13.474 23.0607 21.4904 24.7691 13.7735 16.6255 22.6951 24.5078 22.8301 17.3997 20.7146 22.8301 16.617 1.76097 11.8766 15.0542 4.66536 11.8016 15.8904 24.1249 18.3294 17.9866 18.9387 21.9737 13.3204 11.5536 16.1355 21.5895 15.4398 19.7355 12.4593 23.2402 24.9764 19.1016 15.2094 16.3091 22.0237 17.0604 13.1525 16.9547 21.7276 20.4493 22.0237 14.7425 24.1433 27.3162 18.4431 19.741 18.5401 23.9687 17.0112 13.2569 16.6502 25.8281 17.0112 16.617 17.0017 28.5597 20.7844 17.0017 18.7004 16.0758 21.7186 15.9537 11.1693 13.5161 24.1433 17.3836 15.7302 20.5481 23.0899 18.7004 12.5132 5.67488 15.7302 12.5132 0 
